<UPF version="2.0.1">
  <PP_INFO>
    Generated using "atomic" code by A. Dal Corso  v.5.0.99 svn rev. 10869
    Author: TM
    Generation date: 10Apr2014
    Pseudopotential type: NC
    Element: Au
    Functional: LDA

    Suggested minimum cutoff for wavefunctions:   0. Ry
    Suggested minimum cutoff for charge density:   0. Ry
    The Pseudo was generated with a Scalar-Relativistic Calculation
    L component and cutoff radius for Local Potential:  0   2.6000

    Valence configuration: 
    nl pn  l   occ       Rcut    Rcut US       E pseu
    6P  2  1  0.00      2.600      2.600    -0.065162
    5D  3  2 10.00      2.600      2.600    -0.523090
    6S  1  0  1.00      2.788      2.788    -0.447624
    Generation configuration:
    6P  2  1  0.00      2.600      2.600    -0.065163
    5D  3  2 10.00      2.600      2.600    -0.523089
    6S  1  0  1.00      2.600      2.600    -0.447622

    Pseudization used: troullier-martins
<PP_INPUTFILE>
 &input
   title='Au',
   zed=79.,
   rel=1,
   config='[Xe] 4f14 5d10.0 6s1.0 6p0.0',
   iswitch=3,
   dft='LDA'
 /
 &inputp
   pseudotype=2,
   file_pseudopw='Au.pz-n-nc.UPF',
   author='TM',
   lloc=0,
   nlcc=.true.,
   tm=.true.
 /
3
6P  2  1  0.00  0.00  2.60  2.60  0.0
5D  3  2 10.00  0.00  2.60  2.60  0.0
6S  1  0  1.00  0.00  2.60  2.60  0.0
</PP_INPUTFILE>
  </PP_INFO>
  <!--                               -->
  <!-- END OF HUMAN READABLE SECTION -->
  <!--                               -->
  <PP_HEADER generated='Generated using "atomic" code by A. Dal Corso  v.5.0.99 svn rev. 10869'
             author="TM"
             date="10Apr2014"
             comment=""
             element="Au"
             pseudo_type="NC"
             relativistic="scalar"
             is_ultrasoft="F"
             is_paw="F"
             is_coulomb="F"
             has_so="F"
             has_wfc="F"
             has_gipaw="F"
             paw_as_gipaw="F"
             core_correction="T"
             functional="LDA"
             z_valence="1.100000000000000E+001"
             total_psenergy="-9.054947350176110E+001"
             wfc_cutoff="0.000000000000000E+000"
             rho_cutoff="0.000000000000000E+000"
             l_max="2"
             l_max_rho="4"
             l_local="0"
             mesh_size="1279"
             number_of_wfc="3"
             number_of_proj="2"/>
  <PP_MESH dx="1.250000000000000E-002" mesh="1279" xmin="-7.000000000000000E+000" rmax="1.000000000000000E+002"
zmesh="7.900000000000000E+001">
    <PP_R type="real" size="1279" columns="4">
 1.154280969056350E-005  1.168800036289902E-005  1.183501730907066E-005  1.198388350077537E-005 
 1.213462219865848E-005  1.228725695594821E-005  1.244181162213593E-005  1.259831034670267E-005 
 1.275677758289254E-005  1.291723809153360E-005  1.307971694490680E-005  1.324423953066353E-005 
 1.341083155579253E-005  1.357951905063667E-005  1.375032837296023E-005  1.392328621206732E-005 
 1.409841959297219E-005  1.427575588062193E-005  1.445532278417225E-005  1.463714836131719E-005 
 1.482126102267309E-005  1.500768953621788E-005  1.519646303178609E-005  1.538761100562044E-005 
 1.558116332498077E-005  1.577715023281075E-005  1.597560235246348E-005  1.617655069248639E-005 
 1.638002665146643E-005  1.658606202293620E-005  1.679468900034167E-005  1.700594018207249E-005 
 1.721984857655562E-005  1.743644760741288E-005  1.765577111868353E-005  1.787785338011243E-005 
 1.810272909250474E-005  1.833043339314805E-005  1.856100186130257E-005  1.879447052376059E-005 
 1.903087586047560E-005  1.927025481026243E-005  1.951264477656899E-005  1.975808363332066E-005 
 2.000660973083819E-005  2.025826190182993E-005  2.051307946745958E-005  2.077110224349020E-005 
 2.103237054650549E-005  2.129692520020938E-005  2.156480754180473E-005  2.183605942845244E-005 
 2.211072324381164E-005  2.238884190466229E-005  2.267045886761101E-005  2.295561813588121E-005 
 2.324436426618870E-005  2.353674237570381E-005  2.383279814910098E-005  2.413257784569717E-005 
 2.443612830667986E-005  2.474349696242617E-005  2.505473183991388E-005  2.536988157022581E-005 
 2.568899539614853E-005  2.601212317986657E-005  2.633931541075354E-005  2.667062321326119E-005 
 2.700609835490770E-005  2.734579325436651E-005  2.768976098965677E-005  2.803805530643692E-005 
 2.839073062640257E-005  2.874784205578996E-005  2.910944539398653E-005  2.947559714224954E-005 
 2.984635451253460E-005  3.022177543643511E-005  3.060191857423422E-005  3.098684332407067E-005 
 3.137660983121973E-005  3.177127899749112E-005  3.217091249074505E-005  3.257557275452785E-005 
 3.298532301782910E-005  3.340022730496103E-005  3.382035044556266E-005  3.424575808472945E-005 
 3.467651669327048E-005  3.511269357809479E-005  3.555435689272801E-005  3.600157564796161E-005 
 3.645441972263599E-005  3.691295987455908E-005  3.737726775156261E-005  3.784741590269696E-005 
 3.832347778956728E-005  3.880552779781194E-005  3.929364124872542E-005  3.978789441102760E-005 
 4.028836451278059E-005  4.079512975345603E-005  4.130826931615377E-005  4.182786337997445E-005 
 4.235399313254775E-005  4.288674078271787E-005  4.342618957338904E-005  4.397242379453232E-005 
 4.452552879635606E-005  4.508559100264215E-005  4.565269792424975E-005  4.622693817278916E-005 
 4.680840147446749E-005  4.739717868410861E-005  4.799336179934946E-005  4.859704397501473E-005 
 4.920831953767253E-005  4.982728400037321E-005  5.045403407757330E-005  5.108866770024757E-005 
 5.173128403119071E-005  5.238198348051186E-005  5.304086772132379E-005  5.370803970562962E-005 
 5.438360368040936E-005  5.506766520390847E-005  5.576033116213172E-005  5.646170978554432E-005 
 5.717191066598311E-005  5.789104477378067E-005  5.861922447510438E-005  5.935656354951406E-005 
 6.010317720774023E-005  6.085918210968589E-005  6.162469638265523E-005  6.239983963981079E-005 
 6.318473299886351E-005  6.397949910099765E-005  6.478426213003356E-005  6.559914783183196E-005 
 6.642428353394158E-005  6.725979816549462E-005  6.810582227735215E-005  6.896248806250284E-005 
 6.982992937671862E-005  7.070828175946961E-005  7.159768245510263E-005  7.249827043428588E-005 
 7.341018641572330E-005  7.433357288814244E-005  7.526857413255816E-005  7.621533624481720E-005 
 7.717400715842579E-005  7.814473666766458E-005  7.912767645099445E-005  8.012298009475629E-005 
 8.113080311716941E-005  8.215130299263148E-005  8.318463917632421E-005  8.423097312912878E-005 
 8.529046834285402E-005  8.636329036578263E-005  8.744960682853838E-005  8.854958747027862E-005 
 8.966340416521678E-005  9.079123094947720E-005  9.193324404828977E-005  9.308962190352450E-005 
 9.426054520157391E-005  9.544619690158577E-005  9.664676226405015E-005  9.786242887974772E-005 
 9.909338669906042E-005  1.003398280616518E-004  1.016019477265210E-004  1.028799429024331E-004 
 1.041740132787346E-004  1.054843610565545E-004  1.068111909803991E-004  1.081547103701436E-004 
 1.095151291534257E-004  1.108926598984485E-004  1.122875178471931E-004  1.136999209490521E-004 
 1.151300898948838E-004  1.165782481514954E-004  1.180446219965611E-004  1.195294405539774E-004 
 1.210329358296646E-004  1.225553427478189E-004  1.240968991876181E-004  1.256578460203925E-004 
 1.272384271472606E-004  1.288388895372388E-004  1.304594832658323E-004  1.321004615541076E-004 
 1.337620808082614E-004  1.354446006596826E-004  1.371482840055209E-004  1.388733970497657E-004 
 1.406202093448393E-004  1.423889938337173E-004  1.441800268925744E-004  1.459935883739699E-004 
 1.478299616505753E-004  1.496894336594508E-004  1.515722949468813E-004  1.534788397137734E-004 
 1.554093658616258E-004  1.573641750390771E-004  1.593435726890380E-004  1.613478680964186E-004 
 1.633773744364541E-004  1.654324088236390E-004  1.675132923612777E-004  1.696203501916560E-004 
 1.717539115468473E-004  1.739143098001537E-004  1.761018825181977E-004  1.783169715136675E-004 
 1.805599228987248E-004  1.828310871390871E-004  1.851308191087876E-004  1.874594781456253E-004 
 1.898174281073129E-004  1.922050374283284E-004  1.946226791774865E-004  1.970707311162290E-004 
 1.995495757576517E-004  2.020596004262737E-004  2.046011973185554E-004  2.071747635641826E-004 
 2.097807012881171E-004  2.124194176734298E-004  2.150913250249251E-004  2.177968408335618E-004 
 2.205363878416901E-004  2.233103941091033E-004  2.261192930799245E-004  2.289635236503331E-004 
 2.318435302371415E-004  2.347597628472390E-004  2.377126771479039E-004  2.407027345380032E-004 
 2.437304022200877E-004  2.467961532733923E-004  2.499004667277567E-004  2.530438276384738E-004 
 2.562267271620809E-004  2.594496626331046E-004  2.627131376417689E-004  2.660176621126839E-004 
 2.693637523845212E-004  2.727519312906933E-004  2.761827282410477E-004  2.796566793045879E-004 
 2.831743272932355E-004  2.867362218466452E-004  2.903429195180877E-004  2.939949838614123E-004 
 2.976929855191026E-004  3.014375023114415E-004  3.052291193267959E-004  3.090684290130384E-004 
 3.129560312701190E-004  3.168925335437994E-004  3.208785509205689E-004  3.249147062237523E-004 
 3.290016301108272E-004  3.331399611719660E-004  3.373303460298163E-004  3.415734394405378E-004 
 3.458699043961085E-004  3.502204122279187E-004  3.546256427116686E-004  3.590862841735835E-004 
 3.636030335979675E-004  3.681765967361073E-004  3.728076882165480E-004  3.774970316567558E-004 
 3.822453597761835E-004  3.870534145107607E-004  3.919219471288214E-004  3.968517183484923E-004 
 4.018434984565563E-004  4.068980674288110E-004  4.120162150519421E-004  4.171987410469287E-004 
 4.224464551940010E-004  4.277601774591716E-004  4.331407381223548E-004  4.385889779071016E-004 
 4.441057481119625E-004  4.496919107435059E-004  4.553483386510084E-004  4.610759156628384E-004 
 4.668755367245572E-004  4.727481080387547E-004  4.786945472066466E-004  4.847157833714514E-004 
 4.908127573635697E-004  4.969864218475926E-004  5.032377414711559E-004  5.095676930156690E-004 
 5.159772655489395E-004  5.224674605797158E-004  5.290392922141762E-004  5.356937873143838E-004 
 5.424319856587365E-004  5.492549401044352E-004  5.561637167519926E-004  5.631593951118168E-004 
 5.702430682728838E-004  5.774158430735368E-004  5.846788402744319E-004  5.920331947336580E-004 
 5.994800555840624E-004  6.070205864128035E-004  6.146559654431642E-004  6.223873857186529E-004 
 6.302160552894170E-004  6.381431974010048E-004  6.461700506854989E-004  6.542978693550558E-004 
 6.625279233978782E-004  6.708614987766557E-004  6.792998976294953E-004  6.878444384733860E-004 
 6.964964564102184E-004  7.052573033353974E-004  7.141283481490804E-004  7.231109769700670E-004 
 7.322065933523859E-004  7.414166185046020E-004  7.507424915118825E-004  7.601856695608600E-004 
 7.697476281673161E-004  7.794298614067372E-004  7.892338821477653E-004  7.991612222885870E-004 
 8.092134329962984E-004  8.193920849492728E-004  8.296987685825868E-004  8.401350943365271E-004 
 8.507026929082248E-004  8.614032155064582E-004  8.722383341096529E-004  8.832097417271350E-004 
 8.943191526636661E-004  9.055683027873066E-004  9.169589498006514E-004  9.284928735154701E-004 
 9.401718761308089E-004  9.519977825145877E-004  9.639724404887383E-004  9.760977211179330E-004 
 9.883755190019388E-004  1.000807752571654E-003  1.013396364388868E-003  1.026143321449788E-003 
 1.039050615492390E-003  1.052120263307627E-003  1.065354307054562E-003  1.078754814579454E-003 
 1.092323879738867E-003  1.106063622726840E-003  1.119976190406168E-003  1.134063756643857E-003 
 1.148328522650792E-003  1.162772717325682E-003  1.177398597603335E-003  1.192208448807300E-003 
 1.207204585006958E-003  1.222389349379100E-003  1.237765114574051E-003  1.253334283086409E-003 
 1.269099287630427E-003  1.285062591520140E-003  1.301226689054259E-003  1.317594105905907E-003 
 1.334167399517270E-003  1.350949159499192E-003  1.367942008035814E-003  1.385148600294291E-003 
 1.402571624839670E-003  1.420213804054984E-003  1.438077894566630E-003  1.456166687675094E-003 
 1.474483009791101E-003  1.493029722877248E-003  1.511809724895185E-003  1.530825950258439E-003 
 1.550081370290911E-003  1.569578993691155E-003  1.589321867002498E-003  1.609313075089058E-003 
 1.629555741617775E-003  1.650053029546477E-003  1.670808141618105E-003  1.691824320861146E-003 
 1.713104851096363E-003  1.734653057449905E-003  1.756472306872852E-003  1.778566008667319E-003 
 1.800937615019160E-003  1.823590621537383E-003  1.846528567800347E-003  1.869755037908821E-003 
 1.893273661046015E-003  1.917088112044642E-003  1.941202111961120E-003  1.965619428657000E-003 
 1.990343877387692E-003  2.015379321398612E-003  2.040729672528821E-003  2.066398891822259E-003 
 2.092390990146665E-003  2.118710028820285E-003  2.145360120246458E-003  2.172345428556188E-003 
 2.199670170258799E-003  2.227338614900778E-003  2.255355085732892E-003  2.283723960385707E-003 
 2.312449671553605E-003  2.341536707687396E-003  2.370989613695659E-003  2.400812991654878E-003 
 2.431011501528534E-003  2.461589861895236E-003  2.492552850686001E-003  2.523905305930825E-003 
 2.555652126514626E-003  2.587798272942710E-003  2.620348768115858E-003  2.653308698115162E-003 
 2.686683212996748E-003  2.720477527596464E-003  2.754696922344721E-003  2.789346744091569E-003 
 2.824432406942150E-003  2.859959393102669E-003  2.895933253736994E-003  2.932359609834037E-003 
 2.969244153086048E-003  3.006592646777951E-003  3.044410926687876E-003  3.082704901998998E-003 
 3.121480556222868E-003  3.160743948134351E-003  3.200501212718310E-003  3.240758562128229E-003 
 3.281522286656856E-003  3.322798755719081E-003  3.364594418847174E-003  3.406915806698530E-003 
 3.449769532076109E-003  3.493162290961686E-003  3.537100863562119E-003  3.581592115368773E-003 
 3.626642998230254E-003  3.672260551438676E-003  3.718451902829531E-003  3.765224269895452E-003 
 3.812584960913953E-003  3.860541376089358E-003  3.909101008709113E-003  3.958271446314606E-003 
 4.008060371886751E-003  4.058475565046467E-003  4.109524903270250E-003  4.161216363121066E-003 
 4.213558021494679E-003  4.266558056881703E-003  4.320224750645493E-003  4.374566488316133E-003 
 4.429591760900702E-003  4.485309166209985E-003  4.541727410201922E-003  4.598855308341918E-003 
 4.656701786980283E-003  4.715275884747000E-003  4.774586753964014E-003  4.834643662075306E-003 
 4.895455993094956E-003  4.957033249073405E-003  5.019385051582189E-003  5.082521143217301E-003 
 5.146451389121511E-003  5.211185778525807E-003  5.276734426310233E-003  5.343107574584374E-003 
 5.410315594287681E-003  5.478368986809969E-003  5.547278385632273E-003  5.617054557988352E-003 
 5.687708406547110E-003  5.759250971116123E-003  5.831693430366660E-003  5.905047103580363E-003 
 5.979323452417908E-003  6.054534082709926E-003  6.130690746270413E-003  6.207805342732992E-003 
 6.285889921410251E-003  6.364956683176467E-003  6.445017982374041E-003  6.526086328743852E-003 
 6.608174389379954E-003  6.691294990708831E-003  6.775461120493547E-003  6.860685929863129E-003 
 6.946982735367426E-003  7.034365021057870E-003  7.122846440594382E-003  7.212440819378772E-003 
 7.303162156715022E-003  7.395024627996658E-003  7.488042586921715E-003  7.582230567735516E-003 
 7.677603287501689E-003  7.774175648401746E-003  7.871962740063548E-003  7.970979841919119E-003 
 8.071242425592073E-003  8.172766157315089E-003  8.275566900377816E-003  8.379660717605496E-003 
 8.485063873868857E-003  8.591792838625505E-003  8.699864288493319E-003  8.809295109856230E-003 
 8.920102401502705E-003  9.032303477297506E-003  9.145915868886996E-003  9.260957328438504E-003 
 9.377445831414151E-003  9.495399579379520E-003  9.614837002847708E-003  9.735776764159128E-003 
 9.858237760397530E-003  9.982239126342744E-003  1.010780023746047E-002  1.023494071292978E-002 
 1.036368041870864E-002  1.049403947063798E-002  1.062603823758490E-002  1.075969734462530E-002 
 1.089503767626656E-002  1.103208037971087E-002  1.117084686815944E-002  1.131135882415843E-002 
 1.145363820298683E-002  1.159770723608707E-002  1.174358843453865E-002  1.189130459257564E-002 
 1.204087879114828E-002  1.219233440152939E-002  1.234569508896624E-002  1.250098481637825E-002 
 1.265822784810127E-002  1.281744875367892E-002  1.297867241170164E-002  1.314192401369399E-002 
 1.330722906805095E-002  1.347461340402353E-002  1.364410317575483E-002  1.381572486636648E-002 
 1.398950529209681E-002  1.416547160649090E-002  1.434365130464337E-002  1.452407222749459E-002 
 1.470676256618080E-002  1.489175086643913E-002  1.507906603306784E-002  1.526873733444279E-002 
 1.546079440709076E-002  1.565526726032006E-002  1.585218628090969E-002  1.605158223785722E-002 
 1.625348628718660E-002  1.645792997681635E-002  1.666494525148889E-002  1.687456445776207E-002 
 1.708682034906334E-002  1.730174609080755E-002  1.751937526557914E-002  1.773974187837941E-002 
 1.796288036193998E-002  1.818882558210285E-002  1.841761284326837E-002  1.864927789391159E-002 
 1.888385693216799E-002  1.912138661148954E-002  1.936190404637190E-002  1.960544681815359E-002 
 1.985205298088822E-002  2.010176106729043E-002  2.035461009475676E-002  2.061063957146217E-002 
 2.086988950253327E-002  2.113240039629928E-002  2.139821327062142E-002  2.166736965930209E-002 
 2.193991161857464E-002  2.221588173367467E-002  2.249532312549416E-002  2.277827945731910E-002 
 2.306479494165203E-002  2.335491434712027E-002  2.364868300547117E-002  2.394614681865532E-002 
 2.424735226599869E-002  2.455234641146525E-002  2.486117691101074E-002  2.517389202002901E-002 
 2.549054060089212E-002  2.581117213058501E-002  2.613583670843655E-002  2.646458506394756E-002 
 2.679746856471740E-002  2.713453922447038E-002  2.747584971118282E-002  2.782145335531270E-002 
 2.817140415813252E-002  2.852575680016720E-002  2.888456664973803E-002  2.924788977161398E-002 
 2.961578293577205E-002  2.998830362626762E-002  3.036551005021643E-002  3.074746114688973E-002 
 3.113421659692343E-002  3.152583683164344E-002  3.192238304250822E-002  3.232391719066996E-002 
 3.273050201665629E-002  3.314220105017344E-002  3.355907862003301E-002  3.398119986420345E-002 
 3.440863073998791E-002  3.484143803433047E-002  3.527968937425129E-002  3.572345323741392E-002 
 3.617279896282488E-002  3.662779676166786E-002  3.708851772827475E-002  3.755503385123378E-002 
 3.802741802463838E-002  3.850574405947678E-002  3.899008669516495E-002  3.948052161122526E-002 
 3.997712543911100E-002  4.047997577418069E-002  4.098915118782232E-002  4.150473123973004E-002 
 4.202679649033609E-002  4.255542851339785E-002  4.309070990874453E-002  4.363272431518325E-002 
 4.418155642356762E-002  4.473729199003131E-002  4.530001784938709E-002  4.586982192869545E-002 
 4.644679326100312E-002  4.703102199925448E-002  4.762259943037866E-002  4.822161798955269E-002 
 4.882817127464523E-002  4.944235406084120E-002  5.006426231545034E-002  5.069399321290290E-002 
 5.133164514993261E-002  5.197731776095204E-002  5.263111193362039E-002  5.329312982460709E-002 
 5.396347487555471E-002  5.464225182924107E-002  5.532956674594629E-002  5.602552702002453E-002 
 5.673024139668436E-002  5.744381998898111E-002  5.816637429502139E-002  5.889801721538568E-002 
 5.963886307076892E-002  6.038902761984307E-002  6.114862807734536E-002  6.191778313239248E-002 
 6.269661296702675E-002  6.348523927499447E-002  6.428378528076052E-002  6.509237575876319E-002 
 6.591113705290950E-002  6.674019709631759E-002  6.757968543130607E-002  6.842973322963503E-002 
 6.929047331300260E-002  7.016204017379778E-002  7.104456999611589E-002  7.193820067703731E-002 
 7.284307184817380E-002  7.375932489748709E-002  7.468710299137997E-002  7.562655109706737E-002 
 7.657781600522721E-002  7.754104635293653E-002  7.851639264689711E-002  7.950400728695148E-002 
 8.050404458989657E-002  8.151666081359575E-002  8.254201418139383E-002  8.358026490684094E-002 
 8.463157521872497E-002  8.569610938642118E-002  8.677403374555928E-002  8.786551672401310E-002 
 8.897072886821900E-002  9.008984286982274E-002  9.122303359266412E-002  9.237047810009920E-002 
 9.353235568266646E-002  9.470884788610236E-002  9.590013853970694E-002  9.710641378506871E-002 
 9.832786210514909E-002  9.956467435373281E-002  1.008170437852504E-001  1.020851660849731E-001 
 1.033692393995905E-001  1.046694643681706E-001  1.059860441535097E-001  1.073191844738783E-001 
 1.086690936351632E-001  1.100359825634177E-001  1.114200648378179E-001  1.128215567240347E-001 
 1.142406772080270E-001  1.156776480302573E-001  1.171326937203404E-001  1.186060416321258E-001 
 1.200979219792219E-001  1.216085678709685E-001  1.231382153488593E-001  1.246871034234251E-001 
 1.262554741115788E-001  1.278435724744311E-001  1.294516466555824E-001  1.310799479198949E-001 
 1.327287306927541E-001  1.343982525998229E-001  1.360887745072956E-001  1.378005605626601E-001 
 1.395338782359697E-001  1.412889983616375E-001  1.430661951807543E-001  1.448657463839383E-001 
 1.466879331547266E-001  1.485330402135090E-001  1.504013558620177E-001  1.522931720283739E-001 
 1.542087843127022E-001  1.561484920333198E-001  1.581125982735040E-001  1.601014099288509E-001 
 1.621152377552284E-001  1.641543964173308E-001  1.662192045378485E-001  1.683099847472505E-001 
 1.704270637341989E-001  1.725707722965920E-001  1.747414453932544E-001  1.769394221962740E-001 
 1.791650461439976E-001  1.814186649946956E-001  1.837006308808978E-001  1.860113003644170E-001 
 1.883510344920614E-001  1.907201988520480E-001  1.931191636311289E-001  1.955483036724307E-001 
 1.980079985340275E-001  2.004986325482460E-001  2.030205948817174E-001  2.055742795961881E-001 
 2.081600857100894E-001  2.107784172608879E-001  2.134296833682158E-001  2.161142982977957E-001 
 2.188326815261730E-001  2.215852578062568E-001  2.243724572336917E-001  2.271947153140589E-001 
 2.300524730309249E-001  2.329461769147478E-001  2.358762791126458E-001  2.388432374590492E-001 
 2.418475155472363E-001  2.448895828017698E-001  2.479699145518484E-001  2.510889921055738E-001 
 2.542473028251603E-001  2.574453402030839E-001  2.606836039391903E-001  2.639626000187776E-001 
 2.672828407916535E-001  2.706448450521942E-001  2.740491381204060E-001  2.774962519240060E-001 
 2.809867250815400E-001  2.845211029865395E-001  2.880999378927434E-001  2.917237890003874E-001 
 2.953932225435787E-001  2.991088118787753E-001  3.028711375743690E-001  3.066807875014048E-001 
 3.105383569254351E-001  3.144444485995297E-001  3.183996728584607E-001  3.224046477140645E-001 
 3.264599989518109E-001  3.305663602285822E-001  3.347243731716810E-001  3.389346874790906E-001 
 3.431979610209862E-001  3.475148599425329E-001  3.518860587679707E-001  3.563122405060083E-001 
 3.607940967565483E-001  3.653323278187473E-001  3.699276428004423E-001  3.745807597289491E-001 
 3.792924056632535E-001  3.840633168076197E-001  3.888942386266194E-001  3.937859259616160E-001 
 3.987391431487085E-001  4.037546641381582E-001  4.088332726153256E-001  4.139757621231161E-001 
 4.191829361859786E-001  4.244556084354553E-001  4.297946027373108E-001  4.352007533202687E-001 
 4.406749049063550E-001  4.462179128428929E-001  4.518306432361507E-001  4.575139730866701E-001 
 4.632687904263043E-001  4.690959944569695E-001  4.749964956911518E-001  4.809712160941747E-001 
 4.870210892282549E-001  4.931470603983800E-001  4.993500868000070E-001  5.056311376686321E-001 
 5.119911944312333E-001  5.184312508596177E-001  5.249523132257065E-001  5.315554004587596E-001 
 5.382415443045921E-001  5.450117894867843E-001  5.518671938699178E-001  5.588088286248770E-001 
 5.658377783962134E-001  5.729551414716300E-001  5.801620299535888E-001  5.874595699330757E-001 
 5.948489016655614E-001  6.023311797491608E-001  6.099075733050483E-001  6.175792661601324E-001 
 6.253474570320277E-001  6.332133597163647E-001  6.411782032764388E-001  6.492432322352620E-001 
 6.574097067700189E-001  6.656789029089677E-001  6.740521127308315E-001  6.825306445666780E-001 
 6.911158232043574E-001  6.998089900954998E-001  7.086115035651159E-001  7.175247390238465E-001 
 7.265500891828638E-001  7.356889642714936E-001  7.449427922575628E-001  7.543130190705188E-001 
 7.638011088273678E-001  7.734085440614351E-001  7.831368259540239E-001  7.929874745689737E-001 
 8.029620290901689E-001  8.130620480620501E-001  8.232891096331267E-001  8.336448118025784E-001 
 8.441307726699394E-001  8.547486306879259E-001  8.655000449184586E-001  8.763866952918815E-001 
 8.874102828694665E-001  8.985725301092017E-001  9.098751811349249E-001  9.213200020088576E-001 
 9.329087810075424E-001  9.446433289012773E-001  9.565254792370466E-001  9.685570886250112E-001 
 9.807400370286199E-001  9.930762280583437E-001  1.005567589269131E+000  1.018216072461586E+000 
 1.031023653986938E+000  1.043992335055862E+000  1.057124142051155E+000  1.070421126844380E+000 
 1.083885367116464E+000  1.097518966682341E+000  1.111324055819683E+000  1.125302791601751E+000 
 1.139457358234453E+000  1.153789967397626E+000  1.168302858590606E+000  1.182998299482174E+000 
 1.197878586264863E+000  1.212946044013758E+000  1.228203027049790E+000  1.243651919307596E+000 
 1.259295134708025E+000  1.275135117535305E+000  1.291174342818983E+000  1.307415316720644E+000 
 1.323860576925497E+000  1.340512693038912E+000  1.357374266987906E+000  1.374447933427716E+000 
 1.391736360153463E+000  1.409242248516992E+000  1.426968333848979E+000  1.444917385886317E+000 
 1.463092209204907E+000  1.481495643657872E+000  1.500130564819283E+000  1.518999884433488E+000 
 1.538106550870063E+000  1.557453549584513E+000  1.577043903584753E+000  1.596880673903445E+000 
 1.616966960076317E+000  1.637305900626443E+000  1.657900673554666E+000  1.678754496836160E+000 
 1.699870628923235E+000  1.721252369254495E+000  1.742903058770364E+000  1.764826080435129E+000 
 1.787024859765532E+000  1.809502865366000E+000  1.832263609470647E+000  1.855310648492040E+000 
 1.878647583576919E+000  1.902278061168873E+000  1.926205773578096E+000  1.950434459558341E+000 
 1.974967904891077E+000  1.999809942977056E+000  2.024964455435275E+000  2.050435372709473E+000 
 2.076226674682303E+000  2.102342391297166E+000  2.128786603187917E+000  2.155563442316470E+000 
 2.182677092618409E+000  2.210131790656765E+000  2.237931826283955E+000  2.266081543312110E+000 
 2.294585340191790E+000  2.323447670699240E+000  2.352673044632333E+000  2.382266028515196E+000 
 2.412231246311772E+000  2.442573380148311E+000  2.473297171044949E+000  2.504407419656528E+000 
 2.535908987022681E+000  2.567806795327404E+000  2.600105828668144E+000  2.632811133834565E+000 
 2.665927821097149E+000  2.699461065005646E+000  2.733416105197647E+000  2.767798247217268E+000 
 2.802612863344141E+000  2.837865393432877E+000  2.873561345763014E+000  2.909706297899732E+000 
 2.946305897565345E+000  2.983365863521755E+000  3.020891986464049E+000  3.058890129925276E+000 
 3.097366231192663E+000  3.136326302235321E+000  3.175776430643602E+000  3.215722780580345E+000 
 3.256171593743987E+000  3.297129190343883E+000  3.338601970087839E+000  3.380596413182052E+000 
 3.423119081343709E+000  3.466176618826210E+000  3.509775753457392E+000  3.553923297690754E+000 
 3.598626149669885E+000  3.643891294306372E+000  3.689725804371141E+000  3.736136841599649E+000 
 3.783131657810893E+000  3.830717596040504E+000  3.878902091688159E+000  3.927692673679322E+000 
 3.977096965641699E+000  4.027122687096432E+000  4.077777654664260E+000  4.129069783286941E+000 
 4.181007087463910E+000  4.233597682504620E+000  4.286849785796552E+000  4.340771718089170E+000 
 4.395371904794115E+000  4.450658877301630E+000  4.506641274313660E+000  4.563327843193642E+000 
 4.620727441333277E+000  4.678849037536573E+000  4.737701713421167E+000  4.797294664837412E+000 
 4.857637203305218E+000  4.918738757468972E+000  4.980608874570842E+000  5.043257221942480E+000 
 5.106693588515634E+000  5.170927886351652E+000  5.235970152190238E+000  5.301830549017776E+000 
 5.368519367655248E+000  5.436047028366252E+000  5.504424082485173E+000  5.573661214065809E+000 
 5.643769241550856E+000  5.714759119462221E+000  5.786641940112772E+000  5.859428935339488E+000 
 5.933131478258443E+000  6.007761085041936E+000  6.083329416717840E+000  6.159848280991737E+000 
 6.237329634091858E+000  6.315785582637241E+000  6.395228385529487E+000  6.475670455868155E+000 
 6.557124362890405E+000  6.639602833934942E+000  6.723118756430647E+000  6.807685179910347E+000 
 6.893315318049740E+000  6.980022550732136E+000  7.067820426139063E+000  7.156722662867154E+000 
 7.246743152071796E+000  7.337895959637549E+000  7.430195328376061E+000  7.523655680251497E+000 
 7.618291618633952E+000  7.714117930581368E+000  7.811149589149919E+000  7.909401755733683E+000 
 8.008889782433595E+000  8.109629214456213E+000  8.211635792542772E+000  8.314925455428606E+000 
 8.419514342333693E+000  8.525418795484423E+000  8.632655362667032E+000  8.741240799813346E+000 
 8.851192073618808E+000  8.962526364193662E+000  9.075261067747340E+000  9.189413799306600E+000 
 9.305002395468025E+000  9.422044917184898E+000  9.540559652589383E+000  9.660565119850022E+000 
 9.782080070065190E+000  9.905123490193121E+000  1.002971460601851E+001  1.015587288515670E+001 
 1.028361804009549E+001  1.041297003127522E+001  1.054394907020771E+001  1.067657562263422E+001 
 1.081087041172344E+001  1.094685442130939E+001  1.108454889917020E+001  1.122397536034822E+001 
 1.136515559051163E+001  1.150811164935864E+001  1.165286587406432E+001  1.179944088277074E+001 
 1.194785957812126E+001  1.209814515083896E+001  1.225032108335034E+001  1.240441115345448E+001 
 1.256043943803831E+001  1.271843031683876E+001  1.287840847625204E+001  1.304039891319106E+001 
 1.320442693899119E+001  1.337051818336513E+001  1.353869859840777E+001  1.370899446265109E+001 
 1.388143238517036E+001  1.405603930974184E+001  1.423284251905267E+001  1.441186963896407E+001 
 1.459314864282770E+001  1.477670785585678E+001  1.496257595955180E+001  1.515078199618207E+001 
 1.534135537332378E+001  1.553432586845477E+001  1.572972363360754E+001  1.592757920008046E+001 