<UPF version="2.0.1">
  <PP_INFO>
    Generated using "atomic" code by A. Dal Corso  v.5.0.99 svn rev. 10869
    Author: TM
    Generation date: 10Apr2014
    Pseudopotential type: NC
    Element:  C
    Functional: LDA

    Suggested minimum cutoff for wavefunctions:   0. Ry
    Suggested minimum cutoff for charge density:   0. Ry
    The Pseudo was generated with a Scalar-Relativistic Calculation
    L component and cutoff radius for Local Potential:  0   1.3000

    Valence configuration: 
    nl pn  l   occ       Rcut    Rcut US       E pseu
    2P  2  1  2.00      1.300      1.300    -0.398373
    2S  1  0  2.00      1.338      1.338    -1.002815
    Generation configuration:
    2P  2  1  2.00      1.300      1.300    -0.398370
    2S  1  0  2.00      1.300      1.300    -1.002806

    Pseudization used: troullier-martins
<PP_INPUTFILE>
 &input
   title='C',
   zed=6,
   rel=1,
   config='[He] 2s2 2p2 3d-2',
   iswitch=3,
   dft='LDA'
 /
 &inputp
   pseudotype=2,
   file_pseudopw='C.pz-nc.UPF',
   author='TM',
   lloc=0,
   tm=.true.
 /
2
2P  2  1  2.00  0.00  1.30  1.30  0.0
2S  1  0  2.00  0.00  1.30  1.30  0.0
</PP_INPUTFILE>
  </PP_INFO>
  <!--                               -->
  <!-- END OF HUMAN READABLE SECTION -->
  <!--                               -->
  <PP_HEADER generated='Generated using "atomic" code by A. Dal Corso  v.5.0.99 svn rev. 10869'
             author="TM"
             date="10Apr2014"
             comment=""
             element=" C"
             pseudo_type="NC"
             relativistic="scalar"
             is_ultrasoft="F"
             is_paw="F"
             is_coulomb="F"
             has_so="F"
             has_wfc="F"
             has_gipaw="F"
             paw_as_gipaw="F"
             core_correction="F"
             functional="LDA"
             z_valence="4.000000000000000E+000"
             total_psenergy="-1.069479629236117E+001"
             wfc_cutoff="0.000000000000000E+000"
             rho_cutoff="0.000000000000000E+000"
             l_max="1"
             l_max_rho="2"
             l_local="0"
             mesh_size="1073"
             number_of_wfc="2"
             number_of_proj="1"/>
  <PP_MESH dx="1.250000000000000E-002" mesh="1073" xmin="-7.000000000000000E+000" rmax="1.000000000000000E+002"
zmesh="6.000000000000000E+000">
    <PP_R type="real" size="1073" columns="4">
 1.519803275924194E-004  1.538920047781704E-004  1.558277279027637E-004  1.577877994268757E-004 
 1.597725256156700E-004  1.617822165866515E-004  1.638171863581231E-004  1.658777528982519E-004 
 1.679642381747518E-004  1.700769682051924E-004  1.722162731079395E-004  1.743824871537364E-004 
 1.765759488179350E-004  1.787970008333828E-004  1.810459902439763E-004  1.833232684588864E-004 
 1.856291913074672E-004  1.879641190948554E-004  1.903284166582679E-004  1.927224534240096E-004 
 1.951466034651957E-004  1.976012455602021E-004  2.000867632518501E-004  2.026035449073358E-004 
 2.051519837789135E-004  2.077324780653416E-004  2.103454309741024E-004  2.129912507844041E-004 
 2.156703509109747E-004  2.183831499686600E-004  2.211300718378319E-004  2.239115457306211E-004 
 2.267280062579823E-004  2.295798934976029E-004  2.324676530626665E-004  2.353917361714803E-004 
 2.383525997179791E-004  2.413507063431159E-004  2.443865245071505E-004  2.474605285628478E-004 
 2.505731988295954E-004  2.537250216684553E-004  2.569164895581584E-004  2.601481011720554E-004 
 2.634203614560362E-004  2.667337817074274E-004  2.700888796548844E-004  2.734861795392877E-004 
 2.769262121956557E-004  2.804095151360902E-004  2.839366326337623E-004  2.875081158079570E-004 
 2.911245227101866E-004  2.947864184113868E-004  2.984943750902116E-004  3.022489721224359E-004 
 3.060507961714845E-004  3.099004412801002E-004  3.137985089631629E-004  3.177456083016794E-004 
 3.217423560379515E-004  3.257893766719445E-004  3.298873025588661E-004  3.340367740079732E-004 
 3.382384393826223E-004  3.424929552015765E-004  3.468009862415882E-004  3.511632056412723E-004 
 3.555802950062847E-004  3.600529445158258E-004  3.645818530304808E-004  3.691677282014195E-004 
 3.738112865809672E-004  3.785132537345678E-004  3.832743643541560E-004  3.880953623729523E-004 
 3.929770010817055E-004  3.979200432463956E-004  4.029252612274172E-004  4.079934371002639E-004 
 4.131253627777264E-004  4.183218401336331E-004  4.235836811281430E-004  4.289117079346167E-004 
 4.343067530680831E-004  4.397696595153202E-004  4.453012808665751E-004  4.509024814489378E-004 
 4.565741364613947E-004  4.623171321115815E-004  4.681323657542521E-004  4.740207460314946E-004 
 4.799831930147072E-004  4.860206383483613E-004  4.921340253955744E-004  4.983243093855100E-004 
 5.045924575626359E-004  5.109394493378571E-004  5.173662764415514E-004  5.238739430785301E-004 
 5.304634660849445E-004  5.371358750871710E-004  5.438922126626914E-004  5.507335345029970E-004 
 5.576609095785454E-004  5.646754203057852E-004  5.717781627162891E-004  5.789702466280090E-004 
 5.862527958186881E-004  5.936269482014549E-004  6.010938560026218E-004  6.086546859417239E-004 
 6.163106194138220E-004  6.240628526740967E-004  6.319125970247679E-004  6.398610790043606E-004 
 6.479095405793550E-004  6.560592393382472E-004  6.643114486880484E-004  6.726674580532598E-004 
 6.811285730773444E-004  6.896961158267394E-004  6.983714249974299E-004  7.071558561241234E-004 
 7.160507817920566E-004  7.250575918514615E-004  7.341776936347343E-004  7.434125121763336E-004 
 7.527634904354444E-004  7.622320895214455E-004  7.718197889222076E-004  7.815280867352685E-004 
 7.913584999019130E-004  8.013125644441976E-004  8.113918357049605E-004  8.215978885908419E-004 
 8.319323178183695E-004  8.423967381631357E-004  8.529927847121086E-004  8.637221131191208E-004 
 8.745863998635641E-004  8.855873425123459E-004  8.967266599851368E-004  9.080060928229541E-004 
 9.194274034601286E-004  9.309923764996833E-004  9.427028189921846E-004  9.545605607180975E-004 
 9.665674544736902E-004  9.787253763605421E-004  9.910362260786823E-004  1.003501927223426E-003 
 1.016124427585940E-003  1.028905699457584E-003  1.041847739938093E-003  1.054952571247625E-003 
 1.068222241042730E-003  1.081658822736315E-003  1.095264415821602E-003  1.109041146200196E-003 
 1.122991166514245E-003  1.137116656482805E-003  1.151419823242422E-003  1.165902901692002E-003 
 1.180568154842021E-003  1.195417874168116E-003  1.210454379969149E-003  1.225680021729739E-003 
 1.241097178487390E-003  1.256708259204213E-003  1.272515703143327E-003  1.288521980250012E-003 
 1.304729591537629E-003  1.321141069478416E-003  1.337758978399194E-003  1.354585914882035E-003 
 1.371624508170005E-003  1.388877420577968E-003  1.406347347908589E-003  1.424037019873558E-003 
 1.441949200520106E-003  1.460086688662905E-003  1.478452318321376E-003  1.497048959162519E-003 
 1.515879516949304E-003  1.534946933994690E-003  1.554254189621388E-003  1.573804300627369E-003 
 1.593600321757251E-003  1.613645346179615E-003  1.633942505970305E-003  1.654494972601835E-003 
 1.675305957438931E-003  1.696378712240311E-003  1.717716529666792E-003  1.739322743795751E-003 
 1.761200730642109E-003  1.783353908685821E-003  1.805785739406025E-003  1.828499727821915E-003 
 1.851499423040384E-003  1.874788418810611E-003  1.898370354085563E-003  1.922248913590604E-003 
 1.946427828399242E-003  1.970910876516103E-003  1.995701883467270E-003  2.020804722898016E-003 
 2.046223317178073E-003  2.071961638014516E-003  2.098023707072333E-003  2.124413596602845E-003 
 2.151135430079979E-003  2.178193382844580E-003  2.205591682756824E-003  2.233334610856805E-003 
 2.261426502033489E-003  2.289871745702024E-003  2.318674786489603E-003  2.347840124929956E-003 
 2.377372318166543E-003  2.407275980664647E-003  2.437555784932371E-003  2.468216462250733E-003 
 2.499262803412953E-003  2.530699659472991E-003  2.562531942503572E-003  2.594764626363682E-003 
 2.627402747475748E-003  2.660451405612604E-003  2.693915764694312E-003  2.727801053595071E-003 
 2.762112566960209E-003  2.796855666033493E-003  2.832035779494847E-003  2.867658404308564E-003 
 2.903729106582252E-003  2.940253522436527E-003  2.977237358885672E-003  3.014686394729385E-003 
 3.052606481455696E-003  3.091003544155314E-003  3.129883582447401E-003  3.169252671417043E-003 
 3.209116962564488E-003  3.249482684766332E-003  3.290356145248797E-003  3.331743730573238E-003 
 3.373651907634065E-003  3.416087224669210E-003  3.459056312283290E-003  3.502565884483672E-003 
 3.546622739729529E-003  3.591233761994128E-003  3.636405921840462E-003  3.682146277510407E-003 
 3.728461976027600E-003  3.775360254314162E-003  3.822848440321488E-003  3.870933954175263E-003 
 3.919624309334851E-003  3.968927113767313E-003  4.018850071136146E-003  4.069400982005006E-003 
 4.120587745056566E-003  4.172418358326691E-003  4.224900920454158E-003  4.278043631946072E-003 
 4.331854796459225E-003  4.386342822097552E-003  4.441516222725914E-003  4.497383619300415E-003 
 4.553953741215428E-003  4.611235427667597E-003  4.669237629036971E-003  4.727969408285517E-003 
 4.787439942373239E-003  4.847658523692080E-003  4.908634561517882E-003  4.970377583480619E-003 
 5.032897237053083E-003  5.096203291058349E-003  5.160305637196149E-003  5.225214291588481E-003 
 5.290939396344659E-003  5.357491221146011E-003  5.424880164850572E-003  5.493116757117895E-003 
 5.562211660054346E-003  5.632175669879093E-003  5.703019718611005E-003  5.774754875776837E-003 
 5.847392350140840E-003  5.920943491456161E-003  5.995419792238278E-003  6.070832889560705E-003 
 6.147194566873336E-003  6.224516755843603E-003  6.302811538220847E-003  6.382091147724110E-003 
 6.462367971953668E-003  6.543654554326636E-003  6.625963596036886E-003  6.709307958039642E-003 
 6.793700663061037E-003  6.879154897632925E-003  6.965684014153320E-003  7.053301532972719E-003 
 7.142021144506698E-003  7.231856711375062E-003  7.322822270567904E-003  7.414932035638921E-003 
 7.508200398926304E-003  7.602641933801568E-003  7.698271396946687E-003  7.795103730659830E-003 
 7.893154065190155E-003  7.992437721101912E-003  8.092970211668328E-003  8.194767245295597E-003 
 8.297844727977325E-003  8.402218765779896E-003  8.507905667359069E-003  8.614921946508236E-003 
 8.723284324738730E-003  8.833009733892633E-003  8.944115318788356E-003  9.056618439899583E-003 
 9.170536676067877E-003  9.285887827249399E-003  9.402689917296226E-003  9.520961196772549E-003 
 9.640720145806414E-003  9.761985476977259E-003  9.884776138239787E-003  1.000911131588466E-002 
 1.013501043753633E-002  1.026249317518871E-002  1.039157944827891E-002  1.052228942679973E-002 
 1.065464353445126E-002  1.078866245183209E-002  1.092436711967073E-002  1.106177874209761E-002 
 1.120091878995829E-002  1.134180900416837E-002  1.148447139911043E-002  1.162892826607394E-002 
 1.177520217673827E-002  1.192331598669954E-002  1.207329283904191E-002  1.222515616795369E-002 
 1.237892970238898E-002  1.253463746977541E-002  1.269230379976839E-002  1.285195332805279E-002 
 1.301361100019219E-002  1.317730207552678E-002  1.334305213112010E-002  1.351088706575554E-002 
 1.368083310398313E-002  1.385291680021709E-002  1.402716504288507E-002  1.420360505862948E-002 
 1.438226441656175E-002  1.456317103257006E-002  1.474635317368122E-002  1.493183946247745E-002 
 1.511965888156876E-002  1.530984077812148E-002  1.550241486844391E-002  1.569741124262945E-002 
 1.589486036925828E-002  1.609479310015815E-002  1.629724067522501E-002  1.650223472730438E-002 
 1.670980728713396E-002  1.691999078834851E-002  1.713281807254774E-002  1.734832239442777E-002 
 1.756653742697739E-002  1.778749726673937E-002  1.801123643913822E-002  1.823778990387483E-002 
 1.846719306038900E-002  1.869948175339062E-002  1.893469227846063E-002  1.917286138772207E-002 
 1.941402629558284E-002  1.965822468455043E-002  1.990549471111994E-002  2.015587501173612E-002 
 2.040940470883032E-002  2.066612341693355E-002  2.092607124886622E-002  2.118928882200593E-002 
 2.145581726463404E-002  2.172569822236195E-002  2.199897386463838E-002  2.227568689133842E-002 
 2.255588053943545E-002  2.283959858975708E-002  2.312688537382588E-002  2.341778578078636E-002 
 2.371234526441894E-002  2.401060985024221E-002  2.431262614270457E-002  2.461844133246614E-002 
 2.492810320377252E-002  2.524166014192111E-002  2.555916114082141E-002  2.588065581065050E-002 
 2.620619438560461E-002  2.653582773174839E-002  2.686960735496281E-002  2.720758540899307E-002 
 2.754981470359776E-002  2.789634871280043E-002  2.824724158324503E-002  2.860254814265648E-002 
 2.896232390840752E-002  2.932662509619359E-002  2.969550862881641E-002  3.006903214507848E-002 
 3.044725400878913E-002  3.083023331788405E-002  3.121802991365951E-002  3.161070439012256E-002 
 3.200831810345903E-002  3.241093318162061E-002  3.281861253403234E-002  3.323141986142253E-002 
 3.364941966577591E-002  3.407267726041235E-002  3.450125878019213E-002  3.493523119184964E-002 
 3.537466230445718E-002  3.581962078002011E-002  3.627017614420550E-002  3.672639879720566E-002 
 3.718836002473831E-002  3.765613200918515E-002  3.812978784087042E-002  3.860940152948148E-002 
 3.909504801563297E-002  3.958680318257635E-002  4.008474386805703E-002  4.058894787632013E-002 
 4.109949399026776E-002  4.161646198376896E-002  4.213993263412441E-002  4.266998773468835E-002 
 4.320671010764860E-002  4.375018361696790E-002  4.430049318148779E-002  4.485772478819731E-002 
 4.542196550566877E-002  4.599330349766220E-002  4.657182803690124E-002  4.715762951902217E-002 
 4.775079947669835E-002  4.835143059394256E-002  4.895961672058882E-002  4.957545288695678E-002 
 5.019903531870038E-002  5.083046145184322E-002  5.146982994800332E-002  5.211724070980898E-002 
 5.277279489650890E-002  5.343659493977848E-002  5.410874455972495E-002  5.478934878109403E-002 
 5.547851394967995E-002  5.617634774894242E-002  5.688295921683232E-002  5.759845876282909E-002 
 5.832295818519257E-002  5.905657068843147E-002  5.979941090099197E-002  6.055159489316858E-002 
 6.131324019524039E-002  6.208446581583551E-002  6.286539226052618E-002  6.365614155065819E-002 
 6.445683724241692E-002  6.526760444613317E-002  6.608856984583215E-002  6.691986171902779E-002 
 6.776160995676656E-002  6.861394608392313E-002  6.947700327975140E-002  7.035091639869426E-002 
 7.123582199145446E-002  7.213185832633125E-002  7.303916541082493E-002  7.395788501351332E-002 
 7.488816068620362E-002  7.583013778636229E-002  7.678396349982768E-002  7.774978686380811E-002 
 7.872775879016912E-002  7.971803208901403E-002  8.072076149256044E-002  8.173610367931773E-002 
 8.276421729856831E-002  8.380526299515682E-002  8.485940343459154E-002  8.592680332846071E-002 
 8.700762946016939E-002  8.810205071099962E-002  8.921023808649838E-002  9.033236474319788E-002 
 9.146860601567110E-002  9.261913944392862E-002  9.378414480115936E-002  9.496380412182050E-002 
 9.615830173008112E-002  9.736782426862267E-002  9.859256072780258E-002  9.983270247518429E-002 
 1.010884432854389E-001  1.023599793706230E-001  1.036475094108367E-001  1.049512345852684E-001 
 1.062713586036290E-001  1.076080877379820E-001  1.089616308549746E-001  1.103321994484724E-001 
 1.117200076726066E-001  1.131252723752358E-001  1.145482131318287E-001  1.159890522797737E-001 
 1.174480149531189E-001  1.189253291177505E-001  1.204212256070121E-001  1.219359381577736E-001 
 1.234697034469530E-001  1.250227611284970E-001  1.265953538708282E-001  1.281877273947618E-001 
 1.298001305119008E-001  1.314328151635128E-001  1.330860364598962E-001  1.347600527202421E-001 
 1.364551255129971E-001  1.381715196967334E-001  1.399095034615346E-001  1.416693483708998E-001 
 1.434513294041764E-001  1.452557249995264E-001  1.470828170974326E-001  1.489328911847526E-001 
 1.508062363393266E-001  1.527031452751464E-001  1.546239143880923E-001  1.565688438022460E-001 
 1.585382374167857E-001  1.605324029534703E-001  1.625516520047222E-001  1.645963000823137E-001 
 1.666666666666667E-001  1.687630752567724E-001  1.708858534207382E-001  1.730353328469709E-001 
 1.752118493960041E-001  1.774157431529766E-001  1.796473584807720E-001  1.819070440738253E-001 
 1.841951530126080E-001  1.865120428187969E-001  1.888580755111377E-001  1.912336176620121E-001 
 1.936390404547139E-001  1.960747197414485E-001  1.985410361020598E-001  2.010383749034968E-001 
 2.035671263600284E-001  2.061276855942142E-001  2.087204526986442E-001  2.113458327984534E-001 
 2.140042361146236E-001  2.166960780280819E-001  2.194217791446037E-001  2.221817653605339E-001 
 2.249764679293340E-001  2.278063235289660E-001  2.306717743301253E-001  2.335732680653290E-001 
 2.365112580988763E-001  2.394862034976876E-001  2.424985691030336E-001  2.455488256031693E-001 
 2.486374496068785E-001  2.517649237179456E-001  2.549317366105633E-001  2.581383831056889E-001 
 2.613853642483615E-001  2.646731873859907E-001  2.680023662476306E-001  2.713734210242518E-001 
 2.747868784500214E-001  2.782432718846072E-001  2.817431413965153E-001  2.852870338474776E-001 
 2.888755029778994E-001  2.925091094933831E-001  2.961884211523398E-001  2.999140128547015E-001 
 3.036864667317516E-001  3.075063722370835E-001  3.113743262387037E-001  3.152909331122950E-001 
 3.192568048356494E-001  3.232725610842925E-001  3.273388293283081E-001  3.314562449303820E-001 
 3.356254512450795E-001  3.398470997193693E-001  3.441218499944146E-001  3.484503700086428E-001 
 3.528333361021125E-001  3.572714331221933E-001  3.617653545305738E-001  3.663158025116172E-001 
 3.709234880820782E-001  3.755891312022014E-001  3.803134608882173E-001  3.850972153262508E-001 
 3.899411419876653E-001  3.948459977458569E-001  3.998125489945163E-001  4.048415717673814E-001 
 4.099338518594918E-001  4.150901849499720E-001  4.203113767263583E-001  4.255982430104878E-001 
 4.309516098859745E-001  4.363723138272836E-001  4.418612018304346E-001  4.474191315453453E-001 
 4.530469714098408E-001  4.587456007853512E-001  4.645159100943086E-001  4.703588009592832E-001 
 4.762751863438610E-001  4.822659906952935E-001  4.883321500889508E-001  4.944746123745781E-001 
 5.006943373244054E-001  5.069922967831110E-001  5.133694748196719E-001  5.198268678811325E-001 
 5.263654849482948E-001  5.329863476933790E-001  5.396904906396606E-001  5.464789613231122E-001 
 5.533528204560919E-001  5.603131420930717E-001  5.673610137984696E-001  5.744975368165796E-001 
 5.817238262436403E-001  5.890410112020789E-001  5.964502350169301E-001  6.039526553944902E-001 
 6.115494446032078E-001  6.192417896568506E-001  6.270308924999858E-001  6.349179701957771E-001 
 6.429042551161622E-001  6.509909951344092E-001  6.591794538200962E-001  6.674709106365548E-001 
 6.758666611407794E-001  6.843680171858685E-001  6.929763071260018E-001  7.016928760239933E-001 
 7.105190858614704E-001  7.194563157516741E-001  7.285059621549594E-001  7.376694390969897E-001 
 7.469481783896774E-001  7.563436298549179E-001  7.658572615511150E-001  7.754905600025781E-001 
 7.852450304317907E-001  7.951221969946004E-001  8.051236030183806E-001  8.152508112431677E-001 
 8.255054040658522E-001  8.358889837874272E-001  8.464031728633469E-001  8.570496141570486E-001 
 8.678299711966417E-001  8.787459284348483E-001  8.897991915121967E-001  9.009914875235278E-001 
 9.123245652878675E-001  9.238001956216707E-001  9.354201716155258E-001  9.471863089143246E-001 
 9.591004460009551E-001  9.711644444835800E-001  9.833801893865030E-001  9.957495894447203E-001 
 1.008274577402158E+000  1.020957110313664E+000  1.033799169850812E+000  1.046802762611528E+000 
 1.059969920433638E+000  1.073302700712344E+000  1.086803186721685E+000  1.100473487940072E+000 
 1.114315740379879E+000  1.128332106921212E+000  1.142524777649864E+000  1.156895970199506E+000 
 1.171447930098217E+000  1.186182931119333E+000  1.201103275636744E+000  1.216211294984640E+000 
 1.231509349821775E+000  1.246999830500348E+000  1.262685157439475E+000  1.278567781503405E+000 
 1.294650184384463E+000  1.310934878990815E+000  1.327424409839130E+000  1.344121353452146E+000 
 1.361028318761274E+000  1.378147947514246E+000  1.395482914687878E+000  1.413035928906064E+000 
 1.430809732862983E+000  1.448807103751667E+000  1.467030853697936E+000  1.485483830199789E+000 
 1.504168916572355E+000  1.523089032398388E+000  1.542247133984482E+000  1.561646214822989E+000 
 1.581289306059754E+000  1.601179476967752E+000  1.621319835426648E+000  1.641713528408430E+000 
 1.662363742469121E+000  1.683273704246676E+000  1.704446680965168E+000  1.725885980945282E+000 
 1.747594954121262E+000  1.769576992564335E+000  1.791835531012726E+000  1.814374047408358E+000 
 1.837196063440268E+000  1.860305145094894E+000  1.883704903213265E+000  1.907398994055187E+000 
 1.931391119870567E+000  1.955685029477869E+000  1.980284518849899E+000  2.005193431706923E+000 
 2.030415660117245E+000  2.055955145105378E+000  2.081815877267802E+000  2.108001897396537E+000 
 2.134517297110507E+000  2.161366219494856E+000  2.188552859748338E+000  2.216081465838798E+000 
 2.243956339166952E+000  2.272181835238461E+000  2.300762364344516E+000  2.329702392250941E+000 
 2.359006440895968E+000  2.388679089096825E+000  2.418724973265154E+000  2.449148788131490E+000 
 2.479955287478808E+000  2.511149284885299E+000  2.542735654476530E+000  2.574719331687005E+000 
 2.607105314031362E+000  2.639898661885239E+000  2.673104499275946E+000  2.706728014683143E+000 
 2.740774461849510E+000  2.775249160601691E+000  2.810157497681508E+000  2.845504927587644E+000 
 2.881296973427944E+000  2.917539227782382E+000  2.954237353576941E+000  2.991397084968443E+000 
 3.029024228240511E+000  3.067124662710845E+000  3.105704341649836E+000  3.144769293210814E+000 
 3.184325621371945E+000  3.224379506889969E+000  3.264937208266003E+000  3.306005062723389E+000 
 3.347589487197945E+000  3.389696979340604E+000  3.432334118532673E+000  3.475507566913906E+000 
 3.519224070423438E+000  3.563490459853890E+000  3.608313651918679E+000  3.653700650332745E+000 
 3.699658546906944E+000  3.746194522656104E+000  3.793315848921122E+000  3.841029888505100E+000 
 3.889344096823787E+000  3.938266023070542E+000  3.987803311395858E+000  4.037963702101830E+000 
 4.088755032851562E+000  4.140185239893808E+000  4.192262359303066E+000  4.244994528235183E+000 
 4.298389986198844E+000  4.352457076342999E+000  4.407204246760467E+000  4.462640051808026E+000 
 4.518773153442985E+000  4.575612322576683E+000  4.633166440444948E+000  4.691444499995776E+000 
 4.750455607294553E+000  4.810208982946839E+000  4.870713963539157E+000  4.931980003097830E+000 
 4.994016674566171E+000  5.056833671300327E+000  5.120440808583822E+000  5.184848025161277E+000 
 5.250065384791328E+000  5.316103077819084E+000  5.382971422768454E+000  5.450680867954362E+000 
 5.519241993115386E+000  5.588665511066828E+000  5.658962269374592E+000  5.730143252050205E+000 
 5.802219581267008E+000  5.875202519098090E+000  5.949103469275985E+000  6.023933978974489E+000 
 6.099705740613007E+000  6.176430593683432E+000  6.254120526600166E+000  6.332787678573300E+000 
 6.412444341505356E+000  6.493102961912004E+000  6.574776142866759E+000  6.657476645970323E+000 
 6.741217393344573E+000  6.826011469651633E+000  6.911872124138469E+000  6.998812772707002E+000 
 7.086847000010464E+000  7.175988561575994E+000  7.266251385953918E+000  7.357649576894215E+000 
 7.450197415550143E+000  7.543909362709794E+000  7.638800061055586E+000  7.734884337452162E+000 
 7.832177205263225E+000  7.930693866697283E+000  8.030449715183137E+000  8.131460337775076E+000 
 8.233741517588365E+000  8.337309236265469E+000  8.442179676473112E+000  8.548369224430951E+000 
 8.655894472471916E+000  8.764772221634741E+000  8.875019484289282E+000  8.986653486794594E+000 
 9.099691672190707E+000  9.214151702924081E+000  9.330051463607360E+000  9.447409063813978E+000 
 9.566242840907707E+000  9.686571362907998E+000  9.808413431391243E+000  9.931788084428499E+000 
 1.005671459956034E+001  1.018321249680890E+001  1.031130154172798E+001  1.044100174849149E+001 
 1.057233338302056E+001  1.070531696615033E+001  1.083997327683617E+001  1.097632335540062E+001 
 1.111438850682087E+001  1.125419030405769E+001  1.139575059142637E+001  1.153909148800977E+001 
 1.168423539111464E+001  1.183120497977116E+001  1.198002321827651E+001  1.213071335978329E+001 
 1.228329894993264E+001  1.243780383053348E+001  1.259425214328778E+001  1.275266833356265E+001 
 1.291307715421016E+001  1.307550366943486E+001  1.323997325871022E+001  1.340651162074422E+001 
 1.357514477749469E+001  1.374589907823552E+001  1.391880120367355E+001  1.409387817011767E+001 
 1.427115733370011E+001  1.445066639465082E+001  1.463243340162582E+001  1.481648675608972E+001 
 1.500285521675364E+001  1.519156790406874E+001  1.538265430477631E+001  1.557614427651529E+001 
 1.577206805248736E+001  1.597045624618115E+001  1.617133985615557E+001  1.637475027088334E+001 
 1.658071927365566E+001  1.678927904754819E+001  1.700046218044995E+001  1.721430167015514E+001 
 1.743083092951904E+001  1.765008379167901E+001  1.787209451534076E+001  1.809689779013160E+001 
 1.832452874202060E+001  1.855502293880706E+001  1.878841639567822E+001  1.902474558083651E+001 
 1.926404742119794E+001  1.950635930816199E+001  1.975171910345389E+001  2.000016514504093E+001 
 2.025173625312249E+001  2.050647173619609E+001  2.076441139719924E+001  2.102559553972869E+001 
 2.129006497433817E+001  2.155786102491483E+001  2.182902553513643E+001  2.210360087500944E+001 
 2.238162994748926E+001  2.266315619518419E+001  2.294822360714312E+001  2.323687672572919E+001 
 2.352916065357950E+001  2.382512106065234E+001  2.412480419136352E+001  2.442825687181186E+001 
 2.473552651709610E+001  2.504666113872350E+001  2.536170935211160E+001  2.568072038418482E+001 
 2.600374408106585E+001  2.633083091586458E+001  2.666203199656445E+001  2.699739907400806E+001 
 2.733698454998367E+001  2.768084148541269E+001  2.802902360864091E+001  2.838158532383352E+001 
 2.873858171947572E+001  2.910006857698074E+001  2.946610237940541E+001  2.983674032027611E+001 
 3.021204031252523E+001  3.059206099754000E+001  3.097686175432572E+001  3.136650270878341E+001 
 3.176104474310500E+001  3.216054950528610E+001  3.256507941875849E+001  3.297469769214429E+001 
 3.338946832913197E+001  3.380945613847748E+001  3.423472674413056E+001  3.466534659548844E+001 
 3.510138297777912E+001  3.554290402257434E+001  3.598997871843569E+001  3.644267692169403E+001 
 3.690106936736453E+001  3.736522768019955E+001  3.783522438587968E+001  3.831113292234647E+001 
 3.879302765127705E+001  3.928098386970310E+001  3.977507782177664E+001  4.027538671068280E+001 
 4.078198871070339E+001  4.129496297943172E+001  4.181438967014076E+001  4.234034994430788E+001 
 4.287292598429583E+001  4.341220100619446E+001  4.395825927282321E+001  4.451118610689702E+001 
 4.507106790435883E+001  4.563799214787843E+001  4.621204742052233E+001  4.679332341959492E+001 
 4.738191097065349E+001  4.797790204170056E+001  4.858138975755336E+001  4.919246841439539E+001 
 4.981123349451010E+001  5.043778168119997E+001  5.107221087389410E+001  5.171462020344440E+001 
 5.236511004761570E+001  5.302378204676967E+001  5.369073911974609E+001  5.436608547994472E+001 
 5.504992665160815E+001  5.574236948631084E+001  5.644352217965459E+001  5.715349428817407E+001 
 5.787239674645585E+001  5.860034188447147E+001  5.933744344512985E+001  6.008381660204962E+001 
 6.083957797755482E+001  6.160484566089821E+001  6.237973922671203E+001  6.316437975369259E+001 
 6.395888984351870E+001  6.476339364000813E+001  6.557801684851607E+001  6.640288675557599E+001 
 6.723813224878919E+001  6.808388383696342E+001  6.894027367050479E+001  6.980743556206738E+001 
 7.068550500746076E+001  7.157461920682232E+001  7.247491708605477E+001  7.338653931853315E+001 
 7.430962834708626E+001  7.524432840625259E+001  7.619078554481816E+001  7.714914764863660E+001 
 7.811956446373617E+001  7.910218761971882E+001  8.009717065345156E+001  8.110466903305787E+001 
 8.212484018220947E+001  8.315784350472367E+001  8.420384040947158E+001  8.526299433559737E+001 
 8.633547077805700E+001  8.742143731347674E+001  8.852106362633685E+001  8.963452153548623E+001 
 9.076198502098823E+001  9.190363025130647E+001  9.305963561083099E+001  9.423018172775086E+001 
 9.541545150227864E+001  9.661563013522773E+001  9.783090515695147E+001  9.906146645664471E+001 
 1.003075063120137E+002
    </PP_R>
    <PP_RAB type="real" size="1073" columns="4">
 1.899754094905242E-006  1.923650059727130E-006  1.947846598784546E-006  1.972347492835946E-006 
 1.997156570195875E-006  2.022277707333144E-006  2.047714829476539E-006  2.073471911228149E-006 
 2.099552977184397E-006  2.125962102564906E-006  2.152703413849244E-006  2.179781089421705E-006 
 2.207199360224188E-006  2.234962510417285E-006  2.263074878049704E-006  2.291540855736080E-006 
 2.320364891343340E-006  2.349551488685692E-006  2.379105208228349E-006  2.409030667800121E-006 
 2.439332543314947E-006  2.470015569502527E-006  2.501084540648127E-006  2.532544311341698E-006 
 2.564399797236419E-006  2.596655975816770E-006  2.629317887176280E-006  2.662390634805051E-006 
 2.695879386387184E-006  2.729789374608250E-006  2.764125897972899E-006  2.798894321632764E-006 
 2.834100078224779E-006  2.869748668720036E-006  2.905845663283331E-006  2.942396702143504E-006 
 2.979407496474739E-006  3.016883829288949E-006  3.054831556339382E-006  3.093256607035598E-006 
 3.132164985369943E-006  3.171562770855691E-006  3.211456119476980E-006  3.251851264650692E-006 
 3.292754518200452E-006  3.334172271342842E-006  3.376110995686056E-006  3.418577244241096E-006 
 3.461577652445696E-006  3.505118939201128E-006  3.549207907922029E-006  3.593851447599463E-006 
 3.639056533877333E-006  3.684830230142335E-006  3.731179688627645E-006  3.778112151530448E-006 
 3.825634952143557E-006  3.873755516001253E-006  3.922481362039536E-006  3.971820103770993E-006 
 4.021779450474394E-006  4.072367208399306E-006  4.123591281985827E-006  4.175459675099665E-006 