<UPF version="2.0.1">
  <PP_INFO>
    Generated using "atomic" code by A. Dal Corso  v.5.0.99 svn rev. 10869
    Author: TM
    Generation date: 10Apr2014
    Pseudopotential type: NC
    Element: Os
    Functional: LDA

    Suggested minimum cutoff for wavefunctions:   0. Ry
    Suggested minimum cutoff for charge density:   0. Ry
    The Pseudo was generated with a Scalar-Relativistic Calculation
    L component and cutoff radius for Local Potential:  0   2.4000

    Valence configuration: 
    nl pn  l   occ       Rcut    Rcut US       E pseu
    6P  2  1  0.00      2.400      2.400    -0.102748
    5D  3  2  6.00      2.400      2.400    -0.475013
    6S  1  0  2.00      2.972      2.972    -0.469418
    Generation configuration:
    6P  2  1  0.00      2.400      2.400    -0.102750
    5D  3  2  6.00      2.400      2.400    -0.475011
    6S  1  0  2.00      2.400      2.400    -0.469417

    Pseudization used: troullier-martins
<PP_INPUTFILE>
 &input
   title='Os',
   zed=76.,
   rel=1,
   config='[Xe] 4f14 6s2.0 6p0.0 5d6.0',
   iswitch=3,
   dft='LDA'
 /
 &inputp
   pseudotype=2,
   file_pseudopw='Os.pz-n-nc.UPF',
   author='TM',
   lloc=0,
   nlcc=.true.,
   tm=.true.
 /
3
6P  2  1  0.00  0.00  2.40  2.40  0.0
5D  3  2  6.00  0.00  2.40  2.40  0.0
6S  1  0  2.00  0.00  2.40  2.40  0.0
</PP_INPUTFILE>
  </PP_INFO>
  <!--                               -->
  <!-- END OF HUMAN READABLE SECTION -->
  <!--                               -->
  <PP_HEADER generated='Generated using "atomic" code by A. Dal Corso  v.5.0.99 svn rev. 10869'
             author="TM"
             date="10Apr2014"
             comment=""
             element="Os"
             pseudo_type="NC"
             relativistic="scalar"
             is_ultrasoft="F"
             is_paw="F"
             is_coulomb="F"
             has_so="F"
             has_wfc="F"
             has_gipaw="F"
             paw_as_gipaw="F"
             core_correction="T"
             functional="LDA"
             z_valence="8.000000000000000E+000"
             total_psenergy="-4.495588629954872E+001"
             wfc_cutoff="0.000000000000000E+000"
             rho_cutoff="0.000000000000000E+000"
             l_max="2"
             l_max_rho="4"
             l_local="0"
             mesh_size="1275"
             number_of_wfc="3"
             number_of_proj="2"/>
  <PP_MESH dx="1.250000000000000E-002" mesh="1275" xmin="-7.000000000000000E+000" rmax="1.000000000000000E+002"
zmesh="7.600000000000000E+001">
    <PP_R type="real" size="1275" columns="4">
 1.199844691519100E-005  1.214936879827661E-005  1.230218904495503E-005  1.245693153370071E-005 
 1.261362044334237E-005  1.277228025684091E-005  1.293293576511498E-005  1.309561207091462E-005 
 1.326033459274356E-005  1.342712906883098E-005  1.359602156115312E-005  1.376703845950551E-005 
 1.394020648562645E-005  1.411555269737233E-005  1.429310449294550E-005  1.447288961517524E-005 
 1.465493615585267E-005  1.483927256012016E-005  1.502592763091589E-005  1.521493053347444E-005 
 1.540631079988387E-005  1.560009833370017E-005  1.579632341461975E-005  1.599501670321072E-005 
 1.619620924570370E-005  1.639993247884276E-005  1.660621823479756E-005  1.681509874613716E-005 
 1.702660665086642E-005  1.724077499752579E-005  1.745763725035515E-005  1.767722729452272E-005 
 1.789957944141966E-005  1.812472843402128E-005  1.835270945231577E-005  1.858355811880107E-005 
 1.881731050405098E-005  1.905400313235126E-005  1.929367298740662E-005  1.953635751811956E-005 
 1.978209464444174E-005  2.003092276329910E-005  2.028288075459145E-005  2.053800798726753E-005 
 2.079634432547654E-005  2.105793013479690E-005  2.132280628854351E-005  2.159101417415429E-005 
 2.186259569965703E-005  2.213759330021765E-005  2.241604994477071E-005  2.269800914273345E-005 
 2.298351495080421E-005  2.327261197984633E-005  2.356534540185881E-005  2.386176095703441E-005 
 2.416190496090667E-005  2.446582431158685E-005  2.477356649709181E-005  2.508517960276416E-005 
 2.540071231878565E-005  2.572021394778509E-005  2.604373441254206E-005  2.637132426378736E-005 
 2.670303468810176E-005  2.703891751591393E-005  2.737902522959907E-005  2.772341097167940E-005 
 2.807212855312774E-005  2.842523246177572E-005  2.878277787082744E-005  2.914482064748049E-005 
 2.951141736165531E-005  2.988262529483430E-005  3.025850244901231E-005  3.063910755575939E-005 
 3.102450008539780E-005  3.141474025629439E-005  3.180988904426978E-005  3.221000819212609E-005 
 3.261516021929419E-005  3.302540843160262E-005  3.344081693116919E-005  3.386145062641711E-005 
 3.428737524221709E-005  3.471865733015686E-005  3.515536427894014E-005  3.559756432491614E-005 
 3.604532656274169E-005  3.649872095617748E-005  3.695781834901990E-005  3.742269047617063E-005 
 3.789340997484530E-005  3.837005039592326E-005  3.885268621544009E-005  3.934139284622448E-005 
 3.983624664968178E-005  4.033732494772556E-005  4.084470603485932E-005  4.135846919041026E-005 
 4.187869469091667E-005  4.240546382267140E-005  4.293885889442301E-005  4.347896325023661E-005 
 4.402586128251673E-005  4.457963844519357E-005  4.514038126707545E-005  4.570817736536913E-005 
 4.628311545937011E-005  4.686528538432539E-005  4.745477810547014E-005  4.805168573224136E-005 
 4.865610153267016E-005  4.926811994795501E-005  4.988783660721852E-005  5.051534834244952E-005 
 5.115075320363330E-005  5.179415047407215E-005  5.244564068589856E-005  5.310532563578367E-005 
 5.377330840084298E-005  5.444969335474259E-005  5.513458618400762E-005  5.582809390453606E-005 
 5.653032487832026E-005  5.724138883037854E-005  5.796139686590008E-005  5.869046148760529E-005 
 5.942869661332455E-005  6.017621759379833E-005  6.093314123070060E-005  6.169958579488961E-005 
 6.247567104488787E-005  6.326151824559455E-005  6.405725018723372E-005  6.486299120454016E-005 
 6.567886719618707E-005  6.650500564445807E-005  6.734153563516646E-005  6.818858787782532E-005 
 6.904629472607085E-005  6.991479019834310E-005  7.079420999882658E-005  7.168469153865428E-005 
 7.258637395737857E-005  7.349939814471184E-005  7.442390676254090E-005  7.536004426721822E-005 
 7.630795693213344E-005  7.726779287056910E-005  7.823970205884335E-005  7.922383635974419E-005 
 8.022034954625839E-005  8.122939732559870E-005  8.225113736353370E-005  8.328572930902299E-005 
 8.433333481916293E-005  8.539411758444589E-005  8.646824335433701E-005  8.755587996317334E-005 
 8.865719735638772E-005  8.977236761706353E-005  9.090156499282279E-005  9.204496592305277E-005 
 9.320274906647533E-005  9.437509532906183E-005  9.556218789230121E-005  9.676421224182153E-005 
 9.798135619637288E-005  9.921380993717469E-005  1.004617660376311E-004  1.017254194934220E-004 
 1.030049677529707E-004  1.043006107482960E-004  1.056125509262521E-004  1.069409932801607E-004 
 1.082861453818425E-004  1.096482174140501E-004  1.110274222033096E-004  1.124239752531756E-004 
 1.138380947779031E-004  1.152700017365451E-004  1.167199198674771E-004  1.181880757233568E-004 
 1.196746987065240E-004  1.211800211048439E-004  1.227042781280043E-004  1.242477079442659E-004 
 1.258105517176777E-004  1.273930536457591E-004  1.289954609976556E-004  1.306180241527765E-004 
 1.322609966399156E-004  1.339246351768667E-004  1.356091997105362E-004  1.373149534575593E-004 
 1.390421629454297E-004  1.407910980541438E-004  1.425620320583704E-004  1.443552416701512E-004 
 1.461710070821356E-004  1.480096120113640E-004  1.498713437435971E-004  1.517564931782055E-004 
 1.536653548736244E-004  1.555982270933766E-004  1.575554118526792E-004  1.595372149656329E-004 
 1.615439460930057E-004  1.635759187906196E-004  1.656334505583421E-004  1.677168628896983E-004 
 1.698264813221036E-004  1.719626354877300E-004  1.741256591650124E-004  1.763158903308004E-004 
 1.785336712131702E-004  1.807793483448966E-004  1.830532726176003E-004  1.853557993365755E-004 
 1.876872882763060E-004  1.900481037366826E-004  1.924386145999240E-004  1.948591943882158E-004 
 1.973102213220752E-004  1.997920783794467E-004  2.023051533555452E-004  2.048498389234486E-004 
 2.074265326954538E-004  2.100356372852056E-004  2.126775603706036E-004  2.153527147575056E-004 
 2.180615184442270E-004  2.208043946868547E-004  2.235817720653827E-004  2.263940845506761E-004 
 2.292417715722831E-004  2.321252780870942E-004  2.350450546488689E-004  2.380015574786357E-004 
 2.409952485359760E-004  2.440265955912090E-004  2.470960722984791E-004  2.502041582697665E-004 
 2.533513391498280E-004  2.565381066920789E-004  2.597649588354314E-004  2.630323997820977E-004 
 2.663409400763736E-004  2.696910966844113E-004  2.730833930749966E-004  2.765183593013425E-004 
 2.799965320839102E-004  2.835184548942733E-004  2.870846780400365E-004  2.906957587508216E-004 
 2.943522612653368E-004  2.980547569195391E-004  3.018038242359070E-004  3.056000490138365E-004 
 3.094440244211725E-004  3.133363510868932E-004  3.172776371949589E-004  3.212684985793426E-004 
 3.253095588202552E-004  3.294014493415809E-004  3.335448095095387E-004  3.377402867325847E-004 
 3.419885365625704E-004  3.462902227971752E-004  3.506460175836248E-004  3.550566015237169E-004 
 3.595226637801654E-004  3.640449021842839E-004  3.686240233450240E-004  3.732607427593829E-004 
 3.779557849242031E-004  3.827098834493747E-004  3.875237811724644E-004  3.923982302747856E-004 
 3.973339923989277E-004  4.023318387677644E-004  4.073925503049591E-004  4.125169177569853E-004 
 4.177057418166836E-004  4.229598332483693E-004  4.282800130145188E-004  4.336671124040443E-004 
 4.391219731621853E-004  4.446454476220336E-004  4.502383988377110E-004  4.559017007192240E-004 
 4.616362381690137E-004  4.674429072202232E-004  4.733226151767062E-004  4.792762807547926E-004 
 4.853048342268423E-004  4.914092175666003E-004  4.975903845963826E-004  5.038493011361140E-004 
 5.101869451542369E-004  5.166043069205239E-004  5.231023891608068E-004  5.296822072136559E-004 
 5.363447891890292E-004  5.430911761289152E-004  5.499224221699989E-004  5.568395947083726E-004 
 5.638437745663183E-004  5.709360561611892E-004  5.781175476764134E-004  5.853893712346516E-004 
 5.927526630731293E-004  6.002085737211764E-004  6.077582681800016E-004  6.154029261047234E-004 
 6.231437419886964E-004  6.309819253501510E-004  6.389187009211839E-004  6.469553088391261E-004 
 6.550930048403150E-004  6.633330604563076E-004  6.716767632125581E-004  6.801254168295975E-004 
 6.886803414267419E-004  6.973428737283658E-004  7.061143672727649E-004  7.149961926236513E-004 
 7.239897375843060E-004  7.330964074144262E-004  7.423176250497019E-004  7.516548313241486E-004 
 7.611094851952432E-004  7.706830639718889E-004  7.803770635452463E-004  7.901929986224729E-004 
 8.001324029633944E-004  8.101968296201610E-004  8.203878511799139E-004  8.307070600105049E-004 
 8.411560685093101E-004  8.517365093551652E-004  8.624500357634784E-004  8.732983217445479E-004 
 8.842830623651284E-004  8.954059740132921E-004  9.066687946666129E-004  9.180732841637324E-004 
 9.296212244793372E-004  9.413144200025949E-004  9.531546978190981E-004  9.651439079963438E-004 
 9.772839238728146E-004  9.895766423506898E-004  1.002023984192241E-003  1.014627894319957E-003 
 1.027390342120436E-003  1.040313321752114E-003  1.053398852456850E-003  1.066648978875437E-003 
 1.080065771367089E-003  1.093651326332929E-003  1.107407766543558E-003  1.121337241470748E-003 
 1.135441927623296E-003  1.149724028887110E-003  1.164185776869570E-003  1.178829431248220E-003 
 1.193657280123849E-003  1.208671640378012E-003  1.223874858035046E-003  1.239269308628641E-003 
 1.254857397573022E-003  1.270641560538801E-003  1.286624263833553E-003  1.302808004787188E-003 
 1.319195312142155E-003  1.335788746448567E-003  1.352590900464295E-003  1.369604399560087E-003 
 1.386831902129794E-003  1.404276100005740E-003  1.421939718879333E-003  1.439825518726960E-003 
 1.457936294241236E-003  1.476274875267681E-003  1.494844127246892E-003  1.513646951662269E-003 
 1.532686286493382E-003  1.551965106675034E-003  1.571486424562100E-003  1.591253290400220E-003 
 1.611268792802394E-003  1.631536059231596E-003  1.652058256489438E-003  1.672838591210994E-003 
 1.693880310365845E-003  1.715186701765417E-003  1.736761094576714E-003  1.758606859842507E-003 
 1.780727411008062E-003  1.803126204454506E-003  1.825806740038885E-003  1.848772561641029E-003 
 1.872027257717285E-003  1.895574461861227E-003  1.919417853371413E-003  1.943561157826275E-003 
 1.968008147666252E-003  1.992762642783246E-003  2.017828511117480E-003  2.043209669261882E-003 
 2.068910083074048E-003  2.094933768295926E-003  2.121284791181275E-003  2.147967269131032E-003 
 2.174985371336665E-003  2.202343319431613E-003  2.230045388150924E-003  2.258095905999195E-003 
 2.286499255926910E-003  2.315259876015283E-003  2.344382260169717E-003  2.373870958821985E-003 
 2.403730579641247E-003  2.433965788254003E-003  2.464581308973119E-003  2.495581925535991E-003 
 2.526972481852029E-003  2.558757882759522E-003  2.590943094792027E-003  2.623533146954410E-003 
 2.656533131508625E-003  2.689948204769396E-003  2.723783587909905E-003  2.758044567777603E-003 
 2.792736497720304E-003  2.827864798422640E-003  2.863434958753066E-003  2.899452536621500E-003 
 2.935923159847761E-003  2.972852527040933E-003  3.010246408489770E-003  3.048110647064328E-003 
 3.086451159128919E-003  3.125273935466555E-003  3.164585042215029E-003  3.204390621814747E-003 
 3.244696893968508E-003  3.285510156613338E-003  3.326836786904559E-003  3.368683242212238E-003 
 3.411056061130153E-003  3.453961864497466E-003  3.497407356433247E-003  3.541399325383998E-003 
 3.585944645184377E-003  3.631050276131227E-003  3.676723266071151E-003  3.722970751501751E-003 
 3.769799958686712E-003  3.817218204784939E-003  3.865232898993854E-003  3.913851543707114E-003 
 3.963081735686873E-003  4.012931167250780E-003  4.063407627473946E-003  4.114519003405972E-003 
 4.166273281303334E-003  4.218678547877249E-003  4.271742991557233E-003  4.325474903770581E-003 
 4.379882680237890E-003  4.434974822284927E-003  4.490759938170973E-003  4.547246744433875E-003 
 4.604444067252045E-003  4.662360843823537E-003  4.721006123762523E-003  4.780389070513309E-003 
 4.840518962782136E-003  4.901405195987013E-003  4.963057283725751E-003  5.025484859262489E-003 
 5.088697677032915E-003  5.152705614168408E-003  5.217518672039381E-003  5.283146977817984E-003 
 5.349600786060517E-003  5.416890480309721E-003  5.485026574717215E-003  5.554019715686389E-003 
 5.623880683535879E-003  5.694620394184047E-003  5.766249900854599E-003  5.838780395803682E-003 
 5.912223212068707E-003  5.986589825239128E-003  6.061891855249554E-003  6.138141068195377E-003 
 6.215349378171246E-003  6.293528849132686E-003  6.372691696781087E-003  6.452850290472452E-003 
 6.534017155150129E-003  6.616204973301854E-003  6.699426586941438E-003  6.783694999615320E-003 
 6.869023378434426E-003  6.955425056131549E-003  7.042913533144609E-003  7.131502479726148E-003 
 7.221205738079298E-003  7.312037324520680E-003  7.404011431670476E-003  7.497142430670040E-003 
 7.591444873427457E-003  7.686933494891263E-003  7.783623215352834E-003  7.881529142777708E-003 
 7.980666575166230E-003  8.081051002943920E-003  8.182698111381847E-003  8.285623783047504E-003 
 8.389844100286497E-003  8.495375347735422E-003  8.602234014866414E-003  8.710436798563608E-003 
 8.820000605732101E-003  8.930942555939668E-003  9.043279984091740E-003  9.157030443140028E-003 
 9.272211706825179E-003  9.388841772453985E-003  9.506938863711482E-003  9.626521433508445E-003 
 9.747608166864711E-003  9.870217983828712E-003  9.994370042433802E-003  1.012008374169172E-002 
 1.024737872462375E-002  1.037627488132996E-002  1.050679235209707E-002  1.063895153054543E-002 
 1.077277306681556E-002  1.090827787079474E-002  1.104548711538431E-002  1.118442223980787E-002 
 1.132510495296129E-002  1.146755723680472E-002  1.161180134979731E-002  1.175785983037521E-002 
 1.190575550047316E-002  1.205551146909050E-002  1.220715113590202E-002  1.236069819491416E-002 
 1.251617663816729E-002  1.267361075948450E-002  1.283302515826754E-002  1.299444474334055E-002 
 1.315789473684210E-002  1.332340067816624E-002  1.349098842795302E-002  1.366068417212928E-002 
 1.383251442600033E-002  1.400650603839289E-002  1.418268619585042E-002  1.436108242688095E-002 
 1.454172260625853E-002  1.472463495937870E-002  1.490984806666877E-002  1.509739086805358E-002 
 1.528729266747741E-002  1.547958313748278E-002  1.567429232384683E-002  1.587145065027606E-002 
 1.607108892316013E-002  1.627323833638533E-002  1.647793047620875E-002  1.668519732619369E-002 
 1.689507127220712E-002  1.710758510748015E-002  1.732277203773187E-002  1.754066568635794E-002 
 1.776130009968427E-002  1.798470975228679E-002  1.821092955237831E-002  1.843999484726281E-002 
 1.867194142885866E-002  1.890680553929112E-002  1.914462387655528E-002  1.938543360025021E-002 
 1.962927233738514E-002  1.987617818825886E-002  2.012618973241289E-002  2.037934603465965E-002 
 2.063568665118643E-002  2.089525163573611E-002  2.115808154586558E-002  2.142421744928304E-002 
 2.169370093026484E-002  2.196657409615320E-002  2.224287958393542E-002  2.252266056690612E-002 
 2.280596076141311E-002  2.309282443368814E-002  2.338329640676367E-002  2.367742206747644E-002 
 2.397524737355934E-002  2.427681886082238E-002  2.458218365042398E-002  2.489138945623382E-002 
 2.520448459228811E-002  2.552151798033888E-002  2.584253915749801E-002  2.616759828397753E-002 
 2.649674615092733E-002  2.683003418837126E-002  2.716751447324326E-002  2.750923973752444E-002 
 2.785526337648256E-002  2.820563945701526E-002  2.856042272609793E-002  2.891966861933820E-002 
 2.928343326963775E-002  2.965177351596327E-002  3.002474691222768E-002  3.040241173628296E-002 
 3.078482699902621E-002  3.117205245362029E-002  3.156414860483023E-002  3.196117671847748E-002 
 3.236319883101251E-002  3.277027775920832E-002  3.318247710997566E-002  3.359986129030167E-002 
 3.402249551731377E-002  3.445044582846976E-002  3.488377909187642E-002  3.532256301673779E-002 
 3.576686616393480E-002  3.621675795673825E-002  3.667230869165594E-002  3.713358954941710E-002 
 3.760067260609429E-002  3.807363084436528E-002  3.855253816491717E-002  3.903746939799300E-002 
 3.952850031508463E-002  4.002570764077192E-002  4.052916906471093E-002  4.103896325377362E-002 
 4.155516986433907E-002  4.207786955474045E-002  4.260714399786793E-002  4.314307589392991E-002 
 4.368574898337568E-002  4.423524805997935E-002  4.479165898408971E-002  4.535506869604575E-002 
 4.592556522976107E-002  4.650323772647991E-002  4.708817644870501E-002  4.768047279430185E-002 
 4.828021931077956E-002  4.888750970975136E-002  4.950243888157782E-002  5.012510291019293E-002 
 5.075559908811807E-002  5.139402593166388E-002  5.204048319632339E-002  5.269507189235959E-002 
 5.335789430058785E-002  5.402905398835804E-002  5.470865582573698E-002  5.539680600189421E-002 
 5.609361204169503E-002  5.679918282250059E-002  5.751362859118101E-002  5.823706098134129E-002 
 5.896959303076401E-002  5.971133919907247E-002  6.046241538561434E-002  6.122293894757196E-002 
 6.199302871829927E-002  6.277280502588951E-002  6.356238971197742E-002  6.436190615077640E-002 
 6.517147926835676E-002  6.599123556216530E-002  6.682130312079054E-002  6.766181164397751E-002 
 6.851289246289277E-002  6.937467856064591E-002  7.024730459306816E-002  7.113090690975220E-002 
 7.202562357535797E-002  7.293159439118453E-002  7.384896091701519E-002  7.477786649323616E-002 
 7.571845626323330E-002  7.667087719607210E-002  7.763527810946076E-002  7.861180969300423E-002 
 7.960062453174935E-002  8.060187713002613E-002  8.161572393559041E-002  8.264232336406797E-002 
 8.368183582370828E-002  8.473442374044821E-002  8.580025158329095E-002  8.687948589000571E-002 
 8.797229529314832E-002  8.907885054641149E-002  9.019932455130504E-002  9.133389238417151E-002 
 9.248273132354343E-002  9.364602087784206E-002  9.482394281342717E-002  9.601668118299785E-002 
 9.722442235435066E-002  9.844735503950112E-002  9.968567032416906E-002  1.009395616976372E-001 
 1.022092250829839E-001  1.034948588676959E-001  1.047966639346682E-001  1.061148436935905E-001 
 1.074496041127322E-001  1.088011537511247E-001  1.101697037911482E-001  1.115554680715313E-001 
 1.129586631207618E-001  1.143795081909211E-001  1.158182252919423E-001  1.172750392262992E-001 
 1.187501776241333E-001  1.202438709788201E-001  1.217563526829854E-001  1.232878590649728E-001 
 1.248386294257701E-001  1.264089060764015E-001  1.279989343757880E-001  1.296089627690866E-001 
 1.312392428265096E-001  1.328900292826323E-001  1.345615800761975E-001  1.362541563904170E-001 
 1.379680226937838E-001  1.397034467813949E-001  1.414606998167941E-001  1.432400563743441E-001 
 1.450417944821264E-001  1.468661956653864E-001  1.487135449905209E-001  1.505841311096200E-001 
 1.524782463055711E-001  1.543961865377265E-001  1.563382514881499E-001  1.583047446084413E-001 
 1.602959731671510E-001  1.623122482977930E-001  1.643538850474581E-001  1.664212024260424E-001 
 1.685145234560927E-001  1.706341752232781E-001  1.727804889275004E-001  1.749537999346419E-001 
 1.771544478289699E-001  1.793827764661943E-001  1.816391340271986E-001  1.839238730724427E-001 
 1.862373505970501E-001  1.885799280865914E-001  1.909519715735648E-001  1.933538516945913E-001 
 1.957859437483270E-001  1.982486277541025E-001  2.007422885113050E-001  2.032673156595003E-001 
 2.058241037393180E-001  2.084130522540978E-001  2.110345657323115E-001  2.136890537907744E-001 
 2.163769311986456E-001  2.190986179422387E-001  2.218545392906454E-001  2.246451258621824E-001 
 2.274708136916798E-001  2.303320442986091E-001  2.332292647560743E-001  2.361629277606665E-001 
 2.391334917031983E-001  2.421414207403299E-001  2.451871848670923E-001  2.482712599903274E-001 
 2.513941280030483E-001  2.545562768597344E-001  2.577582006525792E-001  2.610003996886886E-001 
 2.642833805682588E-001  2.676076562637320E-001  2.709737461999479E-001  2.743821763353084E-001 
 2.778334792439556E-001  2.813281941989914E-001  2.848668672567378E-001  2.884500513420589E-001 
 2.920783063347587E-001  2.957521991570609E-001  2.994723038621938E-001  3.032392017240869E-001 
 3.070534813281937E-001  3.109157386634638E-001  3.148265772154625E-001  3.187866080606708E-001 
 3.227964499619654E-001  3.268567294653006E-001  3.309680809976105E-001  3.351311469659355E-001 
 3.393465778578035E-001  3.436150323428683E-001  3.479371773758264E-001  3.523136883006336E-001 
 3.567452489560251E-001  3.612325517823697E-001  3.657762979298644E-001  3.703771973680876E-001 
 3.750359689969384E-001  3.797533407589610E-001  3.845300497530914E-001  3.893668423498287E-001 
 3.942644743078556E-001  3.992237108921310E-001  4.042453269934597E-001  4.093301072495745E-001 
 4.144788461677364E-001  4.196923482488750E-001  4.249714281132990E-001  4.303169106279759E-001 
 4.357296310354252E-001  4.412104350842232E-001  4.467601791611520E-001  4.523797304250162E-001 
 4.580699669421322E-001  4.638317778235334E-001  4.696660633638935E-001  4.755737351821965E-001 
 4.815557163641847E-001  4.876129416065867E-001  4.937463573631710E-001  4.999569219926290E-001 
 5.062456059083176E-001  5.126133917298951E-001  5.190612744368494E-001  5.255902615239728E-001 
 5.322013731587820E-001  5.388956423409185E-001  5.456741150635633E-001  5.525378504768685E-001 
 5.594879210534577E-001  5.665254127559995E-001  5.736514252068883E-001  5.808670718600696E-001 
 5.881734801750113E-001  5.955717917928784E-001  6.030631627149147E-001  6.106487634830655E-001 
 6.183297793628861E-001  6.261074105287330E-001  6.339828722513002E-001  6.419573950875060E-001 
 6.500322250727656E-001  6.582086239156949E-001  6.664878691952456E-001  6.748712545603383E-001 
 6.833600899319933E-001  6.919557017080059E-001  7.006594329702065E-001  7.094726436943101E-001 
 7.183967109624242E-001  7.274330291782169E-001  7.365830102847916E-001  7.458480839853141E-001 
 7.552296979663978E-001  7.647293181243157E-001  7.743484287940455E-001  7.840885329811972E-001 
 7.939511525968692E-001  8.039378286954392E-001  8.140501217153669E-001  8.242896117230121E-001 
 8.346578986595177E-001  8.451566025908152E-001  8.557873639607502E-001  8.665518438474171E-001 
 8.774517242227001E-001  8.884887082150810E-001  8.996645203757661E-001  9.109809069481400E-001 
 9.224396361406297E-001  9.340424984029859E-001  9.457913067060404E-001  9.576878968249967E-001 
 9.697341276262611E-001  9.819318813579067E-001  9.942830639437721E-001  1.006789605281262E+000 
 1.019453459542907E+000  1.032276605481699E+000  1.045261046740281E+000  1.058408812164017E+000 
 1.071721956118002E+000  1.085202558808067E+000  1.098852726605806E+000  1.112674592377711E+000 
 1.126670315818430E+000  1.140842083788222E+000  1.155192110654670E+000  1.169722638638662E+000 
 1.184435938164761E+000  1.199334308215953E+000  1.214420076692867E+000  1.229695600777523E+000 
 1.245163267301634E+000  1.260825493119564E+000  1.276684725485966E+000  1.292743442438159E+000 
 1.309004153183341E+000  1.325469398490646E+000  1.342141751088154E+000  1.359023816064880E+000 
 1.376118231277819E+000  1.393427667764132E+000  1.410954830158481E+000  1.428702457115653E+000 
 1.446673321738469E+000  1.464870232011084E+000  1.483296031237754E+000  1.501953598487093E+000 
 1.520845849041943E+000  1.539975734854893E+000  1.559346245009517E+000  1.578960406187442E+000 
 1.598821283141250E+000  1.618931979173376E+000  1.639295636620993E+000  1.659915437347002E+000 
 1.680794603237224E+000  1.701936396703802E+000  1.723344121194982E+000  1.745021121711272E+000 
 1.766970785328099E+000  1.789196541725067E+000  1.811701863721825E+000  1.834490267820726E+000 
 1.857565314756276E+000  1.880930610051500E+000  1.904589804581331E+000  1.928546595143042E+000 
 1.952804725033903E+000  1.977367984636066E+000  2.002240212008811E+000  2.027425293488275E+000 
 2.052927164294672E+000  2.078749809147203E+000  2.104897262886667E+000  2.131373611105899E+000 
 2.158182990788184E+000  2.185329590953633E+000  2.212817653313756E+000  2.240651472934226E+000 
 2.268835398905978E+000  2.297373835024795E+000  2.326271240479374E+000  2.355532130548114E+000 
 2.385161077304623E+000  2.415162710332105E+000  2.445541717446767E+000  2.476302845430270E+000 
 2.507450900771447E+000  2.538990750417323E+000  2.570927322533565E+000  2.603265607274549E+000 
 2.636010657563050E+000  2.669167589879801E+000  2.702741585062939E+000  2.736737889117508E+000 
 2.771161814035194E+000  2.806018738624290E+000  2.841314109350185E+000  2.877053441186371E+000 
 2.913242318476147E+000  2.949886395805227E+000  2.986991398885238E+000  3.024563125448406E+000 
 3.062607446153451E+000  3.101130305502876E+000  3.140137722771840E+000  3.179635792948642E+000 
 3.219630687687110E+000  3.260128656270926E+000  3.301136026590060E+000  3.342659206129569E+000 
 3.384704682970723E+000  3.427279026804826E+000  3.470388889959727E+000  3.514041008439239E+000 
 3.558242202975697E+000  3.602999380095665E+000  3.648319533199131E+000  3.694209743652231E+000 
 3.740677181893696E+000  3.787729108555308E+000  3.835372875596318E+000  3.883615927452267E+000 
 3.932465802198165E+000  3.981930132726314E+000  4.032016647939008E+000  4.082733173956137E+000 
 4.134087635338082E+000  4.186088056323922E+000  4.238742562085218E+000  4.292059379995636E+000 
 4.346046840916433E+000  4.400713380498225E+000  4.456067540499046E+000  4.512117970119005E+000 
 4.568873427351778E+000  4.626342780353011E+000  4.684535008826041E+000  4.743459205424970E+000 
 4.803124577175380E+000  4.863540446913016E+000  4.924716254740424E+000  4.986661559502046E+000 
 5.049386040277793E+000  5.112899497895379E+000  5.177211856461795E+000  5.242333164913894E+000 
 5.308273598588620E+000  5.375043460812901E+000  5.442653184513537E+000  5.511113333847425E+000 
 5.580434605852165E+000  5.650627832117552E+000  5.721703980478009E+000  5.793674156726301E+000 
 5.866549606348915E+000  5.940341716283099E+000  6.015062016696170E+000  6.090722182787100E+000 
 6.167334036610750E+000  6.244909548925170E+000  6.323460841061966E+000  6.403000186820358E+000 
 6.483540014384958E+000  6.565092908267658E+000  6.647671611274072E+000  6.731289026494530E+000 
 6.815958219320289E+000  6.901692419485006E+000  6.988505023131857E+000  7.076409594906808E+000 
 7.165419870078019E+000  7.255549756682089E+000  7.346813337697184E+000  7.439224873243489E+000 
 7.532798802811472E+000  7.627549747517979E+000  7.723492512390906E+000  7.820642088682477E+000 
 7.919013656211608E+000  8.018622585735896E+000  8.119484441353206E+000  8.221614982933696E+000 
 8.325030168582291E+000  8.429746157132117E+000  8.535779310669460E+000  8.643146197090260E+000 
 8.751863592688972E+000  8.861948484779861E+000  8.973418074351256E+000  9.086289778753347E+000 
 9.200581234419550E+000  9.316310299622360E+000  9.433495057263682E+000  9.552153817700281E+000 
 9.672305121604920E+000  9.793967742863250E+000  9.917160691507386E+000  1.004190321668621E+001 
 1.016821480967303E+001  1.029611520691127E+001  1.042562439309818E+001  1.055676260430762E+001 
 1.068955033115189E+001  1.082400832198345E+001  1.096015758613696E+001  1.109801939721189E+001 
 1.123761529639673E+001  1.137896709583476E+001  1.152209688203218E+001  1.166702701930933E+001 
 1.181378015329498E+001  1.196237921446490E+001  1.211284742172475E+001  1.226520828603800E+001 
 1.241948561409973E+001  1.257570351205628E+001  1.273388638927206E+001  1.289405896214348E+001 
 1.305624625796087E+001  1.322047361881923E+001  1.338676670557778E+001  1.355515150186966E+001 
 1.372565431816190E+001  1.389830179586638E+001  1.407312091150282E+001  1.425013898091363E+001 
 1.442938366353235E+001  1.461088296670533E+001  1.479466525006790E+001  1.498075922997580E+001 
 1.516919398399195E+001  1.535999895543007E+001  1.555320395795516E+001  1.574883918024189E+001 
 1.594693519069182E+001  1.614752294220956E+001  1.635063377703942E+001  1.655629943166259E+001 