<UPF version="2.0.1">
  <PP_INFO>
    Generated using "atomic" code by A. Dal Corso  v.5.0.99 svn rev. 10869
    Author: TM
    Generation date: 10Apr2014
    Pseudopotential type: NC
    Element: Pt
    Functional: LDA

    Suggested minimum cutoff for wavefunctions:   0. Ry
    Suggested minimum cutoff for charge density:   0. Ry
    The Pseudo was generated with a Scalar-Relativistic Calculation
    L component and cutoff radius for Local Potential:  0   2.4500

    Valence configuration: 
    nl pn  l   occ       Rcut    Rcut US       E pseu
    6P  2  1  0.00      2.450      2.450    -0.070675
    5D  3  2  9.00      2.450      2.450    -0.468714
    6S  1  0  1.00      2.859      2.859    -0.438749
    Generation configuration:
    6P  2  1  0.00      2.450      2.450    -0.070675
    5D  3  2  9.00      2.450      2.450    -0.468713
    6S  1  0  1.00      2.450      2.450    -0.438747

    Pseudization used: troullier-martins
<PP_INPUTFILE>
 &input
   title='Pt',
   zed=78.,
   rel=1,
   config='[Xe] 4f14 5d9.0 6s1.0 6p0.0',
   iswitch=3,
   dft='LDA'
 /
 &inputp
   pseudotype=2,
   file_pseudopw='Pt.pz-n-nc.UPF',
   author='TM',
   lloc=0,
   nlcc=.true.,
   tm=.true.
 /
3
6P  2  1  0.00  0.00  2.45  2.45  0.0
5D  3  2  9.00  0.00  2.45  2.45  0.0
6S  1  0  1.00  0.00  2.45  2.45  0.0
</PP_INPUTFILE>
  </PP_INFO>
  <!--                               -->
  <!-- END OF HUMAN READABLE SECTION -->
  <!--                               -->
  <PP_HEADER generated='Generated using "atomic" code by A. Dal Corso  v.5.0.99 svn rev. 10869'
             author="TM"
             date="10Apr2014"
             comment=""
             element="Pt"
             pseudo_type="NC"
             relativistic="scalar"
             is_ultrasoft="F"
             is_paw="F"
             is_coulomb="F"
             has_so="F"
             has_wfc="F"
             has_gipaw="F"
             paw_as_gipaw="F"
             core_correction="T"
             functional="LDA"
             z_valence="1.000000000000000E+001"
             total_psenergy="-7.426782342049439E+001"
             wfc_cutoff="0.000000000000000E+000"
             rho_cutoff="0.000000000000000E+000"
             l_max="2"
             l_max_rho="4"
             l_local="0"
             mesh_size="1277"
             number_of_wfc="3"
             number_of_proj="2"/>
  <PP_MESH dx="1.250000000000000E-002" mesh="1277" xmin="-7.000000000000000E+000" rmax="1.000000000000000E+002"
zmesh="7.800000000000000E+001">
    <PP_R type="real" size="1277" columns="4">
 1.169079443018611E-005  1.183784652139772E-005  1.198674830021259E-005  1.213752303283659E-005 
 1.229019427812846E-005  1.244478589128088E-005  1.260132202754793E-005  1.275982714601938E-005 
 1.292032601344244E-005  1.308284370809173E-005  1.324740562368765E-005  1.341403747336434E-005 
 1.358276529368731E-005  1.375361544872175E-005  1.392661463415202E-005  1.410178988145280E-005 
 1.427916856211286E-005  1.445877839191195E-005  1.464064743525138E-005  1.482480410953920E-005 
 1.501127718963044E-005  1.520009581232324E-005  1.539128948091155E-005  1.558488806979506E-005 
 1.578092182914719E-005  1.597942138964166E-005  1.618041776723865E-005  1.638394236803108E-005 
 1.659002699315190E-005  1.679870384374308E-005  1.701000552598707E-005  1.722396505620163E-005 
 1.744061586599864E-005  1.765999180750791E-005  1.788212715866665E-005  1.810705662857541E-005 
 1.833481536292147E-005  1.856543894947046E-005  1.879896342362696E-005  1.903542527406522E-005 
 1.927486144843041E-005  1.951730935911194E-005  1.976280688908911E-005  2.001139239785041E-005 
 2.026310472738740E-005  2.051798320826365E-005  2.077606766576034E-005  2.103739842609905E-005 
 2.130201632274274E-005  2.156996270277617E-005  2.184127943336633E-005  2.211600890830439E-005 
 2.239419405462974E-005  2.267587833933745E-005  2.296110577617013E-005  2.324992093249507E-005 
 2.354236893626804E-005  2.383849548308463E-005  2.413834684332022E-005  2.444196986935996E-005 
 2.474941200291935E-005  2.506072128245727E-005  2.537594635068201E-005  2.569513646215178E-005 
 2.601834149097095E-005  2.634561193858281E-005  2.667699894166063E-005  2.701255428009787E-005 
 2.735233038509882E-005  2.769638034737121E-005  2.804475792542160E-005  2.839751755395534E-005 
 2.875471435238209E-005  2.911640413342829E-005  2.948264341185815E-005  2.985348941330402E-005 
 3.022900008320811E-005  3.060923409587659E-005  3.099425086364748E-005  3.138411054617414E-005 
 3.177887405982511E-005  3.217860308720254E-005  3.258336008678023E-005  3.299320830266282E-005 
 3.340821177446793E-005  3.382843534733233E-005  3.425394468204424E-005  3.468480626530290E-005 
 3.512108742010728E-005  3.556285631627549E-005  3.601018198109632E-005  3.646313431011497E-005 
 3.692178407805440E-005  3.738620294987394E-005  3.785646349196726E-005  3.833263918350077E-005 
 3.881480442789507E-005  3.930303456445055E-005  3.979740588011934E-005  4.029799562142539E-005 
 4.080488200653419E-005  4.131814423747470E-005  4.183786251251472E-005  4.236411803869208E-005 
 4.289699304450349E-005  4.343657079275271E-005  4.398293559356070E-005  4.453617281753915E-005 
 4.509636890912985E-005  4.566361140011192E-005  4.623798892327860E-005  4.681959122628645E-005 
 4.740850918567862E-005  4.800483482108436E-005  4.860866130959754E-005  4.922008300033543E-005 
 4.983919542918116E-005  5.046609533371132E-005  5.110088066831142E-005  5.174365061948152E-005 
 5.239450562133419E-005  5.305354737128765E-005  5.372087884595615E-005  5.439660431724026E-005 
 5.508082936861974E-005  5.577366091165088E-005  5.647520720267187E-005  5.718557785971797E-005 
 5.790488387964957E-005  5.863323765549581E-005  5.937075299401597E-005  6.011754513348219E-005 
 6.087373076168561E-005  6.163942803416905E-005  6.241475659268927E-005  6.319983758391092E-005 
 6.399479367833612E-005  6.479974908947197E-005  6.561482959323911E-005  6.644016254762467E-005 
 6.727587691258185E-005  6.812210327018046E-005  6.897897384501052E-005  6.984662252484262E-005 
 7.072518488154836E-005  7.161479819228333E-005  7.251560146093728E-005  7.342773543985366E-005 
 7.435134265182233E-005  7.528656741234939E-005  7.623355585220633E-005  7.719245594026357E-005 
 7.816341750661075E-005  7.914659226596796E-005  8.014213384139181E-005  8.115019778827880E-005 
 8.217094161867158E-005  8.320452482587034E-005  8.425110890935401E-005  8.531085740001505E-005 
 8.638393588571112E-005  8.747051203713882E-005  8.857075563403246E-005  8.968483859169244E-005 
 9.081293498784776E-005  9.195522108985512E-005  9.311187538224219E-005  9.428307859459534E-005 
 9.546901372979920E-005  9.666986609263174E-005  9.788582331871746E-005  9.911707540384706E-005 
 1.003638147336638E-004  1.016262361137243E-004  1.029045367999380E-004  1.041989165293873E-004 
 1.055095775515388E-004  1.068367246598437E-004  1.081805652237376E-004  1.095413092210429E-004 
 1.109191692707774E-004  1.123143606663773E-004  1.137271014093366E-004  1.151576122432707E-004 
 1.166061166884080E-004  1.180728410765146E-004  1.195580145862606E-004  1.210618692790284E-004 
 1.225846401351731E-004  1.241265650907396E-004  1.256878850746388E-004  1.272688440462950E-004 
 1.288696890337639E-004  1.304906701723316E-004  1.321320407435994E-004  1.337940572150577E-004 
 1.354769792801622E-004  1.371810698989093E-004  1.389065953389250E-004  1.406538252170703E-004 
 1.424230325415680E-004  1.442144937546624E-004  1.460284887758125E-004  1.478653010454311E-004 
 1.497252175691725E-004  1.516085289627772E-004  1.535155294974823E-004  1.554465171460013E-004 
 1.574017936290825E-004  1.593816644626550E-004  1.613864390055641E-004  1.634164305079111E-004 
 1.654719561599984E-004  1.675533371418908E-004  1.696608986736018E-004  1.717949700659080E-004 
 1.739558847718068E-004  1.761439804386172E-004  1.783595989607387E-004  1.806030865330735E-004 
 1.828747937051187E-004  1.851750754357420E-004  1.875042911486439E-004  1.898628047885180E-004 
 1.922509848779194E-004  1.946692045748455E-004  1.971178417310440E-004  1.995972789510524E-004 
 2.021079036519806E-004  2.046501081240464E-004  2.072242895918702E-004  2.098308502765439E-004 
 2.124701974584776E-004  2.151427435410379E-004  2.178489061149882E-004  2.205891080237357E-004 
 2.233637774294040E-004  2.261733478797329E-004  2.290182583758210E-004  2.318989534407220E-004 
 2.348158831888997E-004  2.377695033965626E-004  2.407602755728770E-004  2.437886670320802E-004 
 2.468551509664991E-004  2.499602065204871E-004  2.531043188652921E-004  2.562879792748645E-004 
 2.595116852026204E-004  2.627759403591700E-004  2.660812547910224E-004  2.694281449602824E-004 
 2.728171338253484E-004  2.762487509226253E-004  2.797235324492663E-004  2.832420213469544E-004 
 2.868047673867385E-004  2.904123272549355E-004  2.940652646401145E-004  2.977641503211740E-004 
 3.015095622565270E-004  3.053020856744087E-004  3.091423131643189E-004  3.130308447696159E-004 
 3.169682880812743E-004  3.209552583328224E-004  3.249923784964737E-004  3.290802793804671E-004 
 3.332195997276327E-004  3.374109863151964E-004  3.416550940558396E-004  3.459525861000319E-004 
 3.503041339396483E-004  3.547104175128920E-004  3.591721253105362E-004  3.636899544835013E-004 
 3.682646109517876E-004  3.728968095147753E-004  3.775872739629140E-004  3.823367371908168E-004 
 3.871459413117756E-004  3.920156377737192E-004  3.969465874766268E-004  4.019395608914217E-004 
 4.069953381803584E-004  4.121147093189240E-004  4.172984742192748E-004  4.225474428552227E-004 
 4.278624353887959E-004  4.332442822983917E-004  4.386938245085388E-004  4.442119135212952E-004 
 4.497994115492954E-004  4.554571916504739E-004  4.611861378644829E-004  4.669871453508235E-004 
 4.728611205287181E-004  4.788089812187387E-004  4.848316567862190E-004  4.909300882864700E-004 
 4.971052286118206E-004  5.033580426405105E-004  5.096895073874528E-004  5.161006121568955E-004 
 5.225923586970029E-004  5.291657613563788E-004  5.358218472425630E-004  5.425616563825169E-004 
 5.493862418851306E-004  5.562966701057740E-004  5.632940208129156E-004  5.703793873568401E-004 
 5.775538768404848E-004  5.848186102924283E-004  5.921747228420528E-004  5.996233638969100E-004 
 6.071656973223196E-004  6.148029016232240E-004  6.225361701283330E-004  6.303667111765844E-004 
 6.382957483059480E-004  6.463245204446074E-004  6.544542821045438E-004  6.626863035775565E-004 
 6.710218711337485E-004  6.794622872225102E-004  6.880088706760274E-004  6.966629569153524E-004 
 7.054258981590674E-004  7.142990636345691E-004  7.232838397920173E-004  7.323816305209652E-004 
 7.415938573697242E-004  7.509219597674815E-004  7.603673952492144E-004  7.699316396834352E-004 
 7.796161875027946E-004  7.894225519375928E-004  7.993522652522239E-004  8.094068789845946E-004 
 8.195879641885586E-004  8.298971116793918E-004  8.403359322823636E-004  8.509060570844313E-004 
 8.616091376890994E-004  8.724468464744897E-004  8.834208768546485E-004  8.945329435441496E-004 
 9.057847828260208E-004  9.171781528230413E-004  9.287148337724546E-004  9.403966283041299E-004 
 9.522253617222295E-004  9.642028822904158E-004  9.763310615206452E-004  9.886117944655989E-004 
 1.001047000014784E-003  1.013638621194368E-003  1.026388625470777E-003  1.039299005058118E-003 
 1.052371777229472E-003  1.065608984632084E-003  1.079012695606544E-003  1.092585004509960E-003 
 1.106328032043212E-003  1.120243925582313E-003  1.134334859513940E-003  1.148603035575189E-003 
 1.163050683197597E-003  1.177680059855499E-003  1.192493451418763E-003  1.207493172509958E-003 
 1.222681566866021E-003  1.238061007704473E-003  1.253633898094231E-003  1.269402671331106E-003 
 1.285369791317997E-003  1.301537752949886E-003  1.317909082503672E-003  1.334486338032906E-003 
 1.351272109767491E-003  1.368269020518413E-003  1.385479726087555E-003  1.402906915682679E-003 
 1.420553312337615E-003  1.438421673337740E-003  1.456514790650818E-003  1.474835491363236E-003 
 1.493386638121757E-003  1.512171129580802E-003  1.531191900855380E-003  1.550451923979701E-003 
 1.569954208371563E-003  1.589701801302580E-003  1.609697788374325E-003  1.629945294000456E-003 
 1.650447481894926E-003  1.671207555566304E-003  1.692228758818337E-003  1.713514376256801E-003 
 1.735067733802727E-003  1.756892199212083E-003  1.778991182601991E-003  1.801368136983566E-003 
 1.824026558801457E-003  1.846969988480170E-003  1.870202010977274E-003  1.893726256343549E-003 
 1.917546400290194E-003  1.941666164763163E-003  1.966089318524724E-003  1.990819677742346E-003 
 2.015861106584970E-003  2.041217517826799E-003  2.066892873458678E-003  2.092891185307159E-003 
 2.119216515661366E-003  2.145872977907725E-003  2.172864737172695E-003  2.200196010973575E-003 
 2.227871069877502E-003  2.255894238168737E-003  2.284269894524340E-003  2.313002472698344E-003 
 2.342096462214548E-003  2.371556409068003E-003  2.401386916435347E-003  2.431592645394043E-003 
 2.462178315650695E-003  2.493148706278508E-003  2.524508656464026E-003  2.556263066263271E-003 
 2.588416897367378E-003  2.620975173877873E-003  2.653942983091703E-003  2.687325476296126E-003 
 2.721127869573630E-003  2.755355444616932E-003  2.790013549554269E-003  2.825107599785051E-003 
 2.860643078826023E-003  2.896625539168088E-003  2.933060603143879E-003  2.969953963806268E-003 
 3.007311385817921E-003  3.045138706352027E-003  3.083441836004387E-003  3.122226759716933E-003 
 3.161499537712905E-003  3.201266306443766E-003  3.241533279548031E-003  3.282306748822181E-003 
 3.323593085203739E-003  3.365398739766762E-003  3.407730244729830E-003  3.450594214476716E-003 
 3.493997346589906E-003  3.537946422897092E-003  3.582448310530865E-003  3.627509963001706E-003 
 3.673138421284488E-003  3.719340814918659E-003  3.766124363122217E-003  3.813496375919753E-003 
 3.861464255284645E-003  3.910035496295631E-003  3.959217688307947E-003  4.009018516139153E-003 
 4.059445761269915E-003  4.110507303059883E-003  4.162211119978843E-003  4.214565290853386E-003 
 4.267577996129227E-003  4.321257519149416E-003  4.375612247448640E-003  4.430650674063776E-003 
 4.486381398860967E-003  4.542813129879344E-003  4.599954684691689E-003  4.657814991782199E-003 
 4.716403091941568E-003  4.775728139679654E-003  4.835799404655860E-003  4.896626273127553E-003 
 4.958218249416686E-003  5.020584957394859E-003  5.083736141987089E-003  5.147681670694446E-003 
 5.212431535135889E-003  5.277995852609471E-003  5.344384867673185E-003  5.411608953745712E-003 
 5.479678614727266E-003  5.548604486640865E-003  5.618397339294225E-003  5.689068077962563E-003 
 5.760627745092586E-003  5.833087522027868E-003  5.906458730755976E-003  5.980752835677547E-003 
 6.055981445397624E-003  6.132156314539540E-003  6.209289345581572E-003  6.287392590716748E-003 
 6.366478253736024E-003  6.446558691935140E-003  6.527646418045503E-003  6.609754102189286E-003 
 6.692894573859185E-003  6.777080823923047E-003  6.862326006653721E-003  6.948643441784452E-003 
 7.036046616590084E-003  7.124549187994509E-003  7.214164984704566E-003  7.304908009370808E-003 
 7.396792440775471E-003  7.489832636047898E-003  7.584043132907890E-003  7.679438651937254E-003 
 7.776034098879916E-003  7.873844566970999E-003  7.972885339295133E-003  8.073171891174492E-003 
 8.174719892586843E-003  8.277545210614001E-003  8.381663911921121E-003  8.487092265267105E-003 
 8.593846744046662E-003  8.701944028864293E-003  8.811401010140670E-003  8.922234790751823E-003 
 9.034462688701457E-003  9.148102239826960E-003  9.263171200539393E-003  9.379687550597971E-003 
 9.497669495919462E-003  9.617135471422848E-003  9.738104143909857E-003  9.860594414981680E-003 
 9.984625423992369E-003  1.011021655103944E-002  1.023738741999202E-002  1.036615790155709E-002 
 1.049654811638439E-002  1.062857843821026E-002  1.076226949704112E-002  1.089764218237690E-002 
 1.103471764647511E-002  1.117351730765588E-002  1.131406285364866E-002  1.145637624498097E-002 
 1.160047971840974E-002  1.174639579039587E-002  1.189414726062248E-002  1.204375721555738E-002 
 1.219524903206044E-002  1.234864638103618E-002  1.250397323113248E-002  1.266125385248567E-002 
 1.282051282051282E-002  1.298177501975173E-002  1.314506564774909E-002  1.331041021899776E-002 
 1.347783456892339E-002  1.364736485792127E-002  1.381902757544400E-002  1.399284954414041E-002 
 1.416885792404677E-002  1.434708021683053E-002  1.452754427008752E-002  1.471027828169324E-002 
 1.489531080420876E-002  1.508267074934219E-002  1.527238739246614E-002  1.546449037719206E-002 
 1.565900972000218E-002  1.585597581493955E-002  1.605541943835724E-002  1.625737175372718E-002 
 1.646186431650951E-002  1.666892907908322E-002  1.687859839573874E-002  1.709090502773338E-002 
 1.730588214841031E-002  1.752356334838200E-002  1.774398264077887E-002  1.796717446656377E-002 
 1.819317369991356E-002  1.842201565366828E-002  1.865373608484873E-002  1.888837120024379E-002 
 1.912595766206757E-002  1.936653259368812E-002  1.961013358542795E-002  1.985679870043761E-002 
 2.010656648064319E-002  2.035947595276851E-002  2.061556663443313E-002  2.087487854032706E-002 
 2.113745218846318E-002  2.140332860650825E-002  2.167254933819349E-002  2.194515644980597E-002 
 2.222119253676149E-002  2.250070073026024E-002  2.278372470402614E-002  2.307030868113089E-002 
 2.336049744090397E-002  2.365433632592950E-002  2.395187124913106E-002  2.425314870094577E-002 
 2.455821575658842E-002  2.486712008340712E-002  2.517990994833139E-002  2.549663422541400E-002 
 2.581734240346766E-002  2.614208459379764E-002  2.647091153803189E-002  2.680387461604945E-002 
 2.714102585400865E-002  2.748241793247640E-002  2.782810419465952E-002  2.817813865473978E-002 
 2.853257600631371E-002  2.889147163093857E-002  2.925488160678595E-002  2.962286271740391E-002 
 2.999547246058964E-002  3.037276905737361E-002  3.075481146111664E-002  3.114165936672165E-002 
 3.153337321996091E-002  3.193001422692093E-002  3.233164436356602E-002  3.273832638542214E-002 
 3.315012383738265E-002  3.356710106363720E-002  3.398932321772574E-002  3.441685627271888E-002 
 3.484976703152622E-002  3.528812313733471E-002  3.573199308417759E-002  3.618144622763717E-002 
 3.663655279568161E-002  3.709738389963797E-002  3.756401154530391E-002  3.803650864419832E-002 
 3.851494902495426E-002  3.899940744485469E-002  3.948995960151322E-002  3.998668214470250E-002 
 4.048965268833037E-002  4.099894982256762E-002  4.151465312612773E-002  4.203684317870094E-002 
 4.256560157354553E-002  4.310101093023629E-002  4.364315490757459E-002  4.419211821665996E-002 
 4.474798663412617E-002  4.531084701554453E-002  4.588078730899462E-002  4.645789656880693E-002 
 4.704226496947752E-002  4.763398381975775E-002  4.823314557692198E-002  4.883984386121362E-002 
 4.945417347047402E-002  5.007623039495455E-002  5.070611183231509E-002  5.134391620281191E-002 
 5.198974316467534E-002  5.264369362968219E-002  5.330586977892322E-002  5.397637507876872E-002 
 5.465531429703618E-002  5.534279351935954E-002  5.603892016576611E-002  5.674380300746074E-002 
 5.745755218382134E-002  5.818027921960907E-002  5.891209704239346E-002  5.965312000019832E-002 
 6.040346387936852E-002  6.116324592266157E-002  6.193258484756774E-002  6.271160086485905E-002 
 6.350041569737325E-002  6.429915259903285E-002  6.510793637410361E-002  6.592689339669604E-002 
 6.675615163051091E-002  6.759584064883449E-002  6.844609165478435E-002  6.930703750180983E-002 
 7.017881271445135E-002  7.106155350935928E-002  7.195539781657891E-002  7.286048530110190E-002 
 7.377695738468885E-002  7.470495726796769E-002  7.564462995280792E-002  7.659612226497849E-002 
 7.755958287708910E-002  7.853516233182034E-002  7.952301306544707E-002  8.052328943165597E-002 
 8.153614772566448E-002  8.256174620864185E-002  8.360024513243734E-002  8.465180676462095E-002 
 8.571659541383682E-002  8.679477745547787E-002  8.788652135768182E-002  8.899199770765430E-002 
 9.011137923832437E-002  9.124484085533330E-002  9.239255966436494E-002  9.355471499881841E-002 
 9.473148844782885E-002  9.592306388464213E-002  9.712962749534422E-002  9.835136780795420E-002 
 9.958847572188177E-002  1.008411445377550E-001  1.021095699876254E-001  1.033939502655497E-001 
 1.046944860585596E-001  1.060113805780189E-001  1.073448395913752E-001  1.086950714543126E-001 
 1.100622871433064E-001  1.114467002885898E-001  1.128485272075335E-001  1.142679869384454E-001 
 1.157053012747965E-001  1.171606947998760E-001  1.186343949218832E-001  1.201266319094607E-001 
 1.216376389276734E-001  1.231676520744425E-001  1.247169104174344E-001  1.262856560314177E-001 
 1.278741340360862E-001  1.294825926343597E-001  1.311112831511668E-001  1.327604600727141E-001 
 1.344303810862509E-001  1.361213071203335E-001  1.378335023855943E-001  1.395672344160276E-001 
 1.413227741107898E-001  1.431003957765303E-001  1.449003771702511E-001  1.467229995427067E-001 
 1.485685476823513E-001  1.504373099598361E-001  1.523295783730692E-001  1.542456485928402E-001 
 1.561858200090189E-001  1.581503957773367E-001  1.601396828667540E-001  1.621539921074259E-001 
 1.641936382392698E-001  1.662589399611427E-001  1.683502199806414E-001  1.704678050645229E-001 
 1.726120260897655E-001  1.747832180952662E-001  1.769817203341935E-001  1.792078763269955E-001 
 1.814620339150745E-001  1.837445453151404E-001  1.860557671742426E-001  1.883960606254992E-001 
 1.907657913445237E-001  1.931653296065614E-001  1.955950503443485E-001  1.980553332066926E-001 
 2.005465626177971E-001  2.030691278373261E-001  2.056234230212266E-001  2.082098472833187E-001 
 2.108288047576546E-001  2.134807046616685E-001  2.161659613601160E-001  2.188849944298187E-001 
 2.216382287252265E-001  2.244260944447986E-001  2.272490271982262E-001  2.301074680744956E-001 
 2.330018637108086E-001  2.359326663623727E-001  2.389003339730643E-001  2.419053302469857E-001 
 2.449481247209188E-001  2.480291928376900E-001  2.511490160204618E-001  2.543080817479530E-001 
 2.575068836306111E-001  2.607459214877388E-001  2.640257014255902E-001  2.673467359164543E-001 
 2.707095438787260E-001  2.741146507579916E-001  2.775625886091292E-001  2.810538961794419E-001 
 2.845891189928418E-001  2.881688094350849E-001  2.917935268400863E-001  2.954638375773154E-001 
 2.991803151402913E-001  3.029435402361955E-001  3.067541008766045E-001  3.106125924693715E-001 
 3.145196179116586E-001  3.184757876841391E-001  3.224817199463897E-001  3.265380406334756E-001 
 3.306453835537572E-001  3.348043904879230E-001  3.390157112892667E-001  3.432800039852328E-001 
 3.475979348802296E-001  3.519701786597448E-001  3.563974184957653E-001  3.608803461535212E-001 
 3.654196620995810E-001  3.700160756112953E-001  3.746703048876275E-001  3.793830771613715E-001 
 3.841551288127824E-001  3.889872054846405E-001  3.938800621987556E-001  3.988344634739444E-001 
 4.038511834454868E-001  4.089310059860833E-001  4.140747248283426E-001  4.192831436887971E-001 
 4.245570763934912E-001  4.298973470051406E-001  4.353047899518917E-001  4.407802501577081E-001 
 4.463245831743852E-001  4.519386553152377E-001  4.576233437904604E-001  4.633795368441915E-001 
 4.692081338933082E-001  4.751100456679563E-001  4.810861943538589E-001  4.871375137364077E-001 
 4.932649493465658E-001  4.994694586086156E-001  5.057520109897506E-001  5.121135881515633E-001 
 5.185551841034286E-001  5.250778053578180E-001  5.316824710875745E-001  5.383702132851540E-001 
 5.451420769238818E-001  5.519991201212303E-001  5.589424143041476E-001  5.659730443764780E-001 
 5.730921088884725E-001  5.803007202084457E-001  5.876000046965836E-001  5.949911028809356E-001 
 6.024751696356326E-001  6.100533743613296E-001  6.177269011679335E-001  6.254969490596213E-001 
 6.333647321221819E-001  6.413314797127284E-001  6.493984366517778E-001  6.575668634177655E-001 
 6.658380363439935E-001  6.742132478180570E-001  6.826938064837910E-001  6.912810374457380E-001 
 6.999762824762081E-001  7.087809002249293E-001  7.176962664313353E-001  7.267237741395368E-001 
 7.358648339159775E-001  7.451208740698460E-001  7.544933408762494E-001  7.639836988021922E-001 
 7.735934307354110E-001  7.833240382160689E-001  7.931770416713831E-001  8.031539806531912E-001 
 8.132564140785045E-001  8.234859204731020E-001  8.338440982181669E-001  8.443325658000475E-001 
 8.549529620631438E-001  8.657069464659762E-001  8.765961993404900E-001  8.876224221545980E-001 
 8.987873377780494E-001  9.100926907516274E-001  9.215402475597317E-001  9.331317969064070E-001 
 9.448691499948185E-001  9.567541408102681E-001  9.687886264067523E-001  9.809744871971268E-001 
 9.933136272469355E-001  1.005807974571912E+000  1.018459481439248E+000  1.031270124672632E+000 
 1.044241905961130E+000  1.057376852171963E+000  1.070677015667196E+000  1.084144474624436E+000 
 1.097781333361547E+000  1.111589722665447E+000  1.125571800125063E+000  1.139729750468440E+000 
 1.154065785904126E+000  1.168582146466826E+000  1.183281100367409E+000  1.198164944347330E+000 
 1.213236004037489E+000  1.228496634321627E+000  1.243949219704275E+000  1.259596174683334E+000 
 1.275439944127358E+000  1.291483003657553E+000  1.307727860034611E+000  1.324177051550395E+000 
 1.340833148424541E+000  1.357698753206077E+000  1.374776501180059E+000  1.392069060779354E+000 
 1.409579134001585E+000  1.427309456831312E+000  1.445262799667556E+000  1.463441967756654E+000 
 1.481849801630611E+000  1.500489177550922E+000  1.519363007957991E+000  1.538474241926225E+000 
 1.557825865624807E+000  1.577420902784315E+000  1.597262415169173E+000  1.617353503056054E+000 
 1.637697305718321E+000  1.658297001916525E+000  1.679155810395110E+000  1.700276990385342E+000 
 1.721663842114558E+000  1.743319707321860E+000  1.765247969780240E+000  1.787452055825323E+000 
 1.809935434890731E+000  1.832701620050180E+000  1.855754168566425E+000  1.879096682447067E+000 
 1.902732809007392E+000  1.926666241440269E+000  1.950900719393200E+000  1.975440029552678E+000 
 2.000288006235835E+000  2.025448531989583E+000  2.050925538197265E+000  2.076723005692927E+000 
 2.102844965383359E+000  2.129295498877899E+000  2.156078739126224E+000  2.183198871064117E+000 
 2.210660132267363E+000  2.238466813613903E+000  2.266623259954262E+000  2.295133870790470E+000 
 2.324003100963479E+000  2.353235461349231E+000  2.382835519563517E+000  2.412807900675647E+000 
 2.443157287931154E+000  2.473888423483546E+000  2.505006109135269E+000  2.536515207088022E+000 
 2.568420640702459E+000  2.600727395267499E+000  2.633440518779274E+000  2.666565122729880E+000 
 2.700106382906086E+000  2.734069540198026E+000  2.768459901418129E+000  2.803282840130310E+000 
 2.838543797489579E+000  2.874248283092273E+000  2.910401875836899E+000  2.947010224795882E+000 
 2.984079050098234E+000  3.021614143823316E+000  3.059621370905896E+000  3.098106670052523E+000 
 3.137076054669492E+000  3.176535613802440E+000  3.216491513087751E+000  3.256949995715991E+000 
 3.297917383407371E+000  3.339400077399574E+000  3.381404559447939E+000  3.423937392838233E+000 
 3.467005223412218E+000  3.510614780606033E+000  3.554772878501718E+000  3.599486416891917E+000 
 3.644762382357960E+000  3.690607849361581E+000  3.737029981350259E+000  3.784036031876568E+000 
 3.831633345731546E+000  3.879829360092306E+000  3.928631605684161E+000  3.978047707957262E+000 
 4.028085388278130E+000  4.078752465136129E+000  4.130056855365083E+000  4.182006575380363E+000 
 4.234609742431396E+000  4.287874575870065E+000  4.341809398434969E+000  4.396422637551851E+000 
 4.451722826650450E+000  4.507718606497805E+000  4.564418726548450E+000  4.621832046311509E+000 
 4.679967536734986E+000  4.738834281607554E+000  4.798441478977848E+000  4.858798442591738E+000 
 4.919914603347593E+000  4.981799510769856E+000  5.044462834501236E+000  5.107914365813538E+000 
 5.172164019137630E+000  5.237221833612571E+000  5.303097974654215E+000  5.369802735543645E+000 
 5.437346539035444E+000  5.505739938986332E+000  5.574993622004214E+000  5.645118409117935E+000 
 5.716125257468174E+000  5.788025262019429E+000  5.860829657293705E+000  5.934549819125892E+000 
 6.009197266441244E+000  6.084783663055294E+000  6.161320819496274E+000  6.238820694850605E+000 
 6.317295398631497E+000  6.396757192671052E+000  6.477218493036276E+000  6.558691871969028E+000 
 6.641190059850538E+000  6.724725947190518E+000  6.809312586641297E+000  6.894963195037403E+000 
 6.981691155460633E+000  7.069510019331267E+000  7.158433508525461E+000  7.248475517519298E+000 
 7.339650115559896E+000  7.431971548863672E+000  7.525454242842421E+000  7.620112804357285E+000 
 7.715962024001054E+000  7.813016878409335E+000  7.911292532600560E+000  8.010804342345653E+000 
 8.111567856567360E+000  8.213598819769755E+000  8.316913174498449E+000  8.421527063831535E+000 
 8.527456833902075E+000  8.634719036452172E+000  8.743330431419173E+000  8.853307989554542E+000 
 8.964668895075459E+000  9.077430548349993E+000  9.191610568615896E+000  9.307226796733607E+000 
 9.424297297974025E+000  9.542840364841116E+000  9.662874519930273E+000  9.784418518822458E+000 
 9.907491353014743E+000  1.003211225288790E+001  1.015830069071105E+001  1.028607638368435E+001 
 1.041545929701979E+001  1.054646964706080E+001  1.067912790444114E+001  1.081345479728338E+001 
 1.094947131443784E+001  1.108719870876207E+001  1.122665850044161E+001  1.136787248035268E+001 
 1.151086271346690E+001  1.165565154229913E+001  1.180226159039847E+001  1.195071576588318E+001 
 1.210103726502025E+001  1.225324957584971E+001  1.240737648185483E+001  1.256344206567826E+001 
 1.272147071288495E+001  1.288148711577259E+001  1.304351627722963E+001  1.320758351464223E+001 
 1.337371446385005E+001  1.354193508315186E+001  1.371227165736172E+001  1.388475080191585E+001 
 1.405939946703152E+001  1.423624494191801E+001  1.441531485904052E+001  1.459663719843796E+001 
 1.478024029209473E+001  1.496615282836776E+001  1.515440385646913E+001  1.534502279100492E+001 
 1.553803941657152E+001  1.573348389240932E+001  1.593138675711533E+001  1.613177893341483E+001 