<UPF version="2.0.1">
  <PP_INFO>
    Generated using "atomic" code by A. Dal Corso  v.5.0.99 svn rev. 10869
    Author: TM
    Generation date: 10Apr2014
    Pseudopotential type: NC
    Element: Re
    Functional: LDA

    Suggested minimum cutoff for wavefunctions:   0. Ry
    Suggested minimum cutoff for charge density:   0. Ry
    The Pseudo was generated with a Scalar-Relativistic Calculation
    L component and cutoff radius for Local Potential:  0   2.4500

    Valence configuration: 
    nl pn  l   occ       Rcut    Rcut US       E pseu
    6P  2  1  0.00      2.450      2.450    -0.105679
    5D  3  2  5.00      2.450      2.450    -0.409552
    6S  1  0  2.00      3.049      3.049    -0.452929
    Generation configuration:
    6P  2  1  0.00      2.450      2.450    -0.105680
    5D  3  2  5.00      2.450      2.450    -0.409551
    6S  1  0  2.00      2.450      2.450    -0.452928

    Pseudization used: troullier-martins
<PP_INPUTFILE>
 &input
   title='Re',
   zed=75.,
   rel=1,
   config='[Xe] 4f14 6s2.0 6p0.0 5d5.0',
   iswitch=3,
   dft='LDA'
 /
 &inputp
   pseudotype=2,
   file_pseudopw='Re.pz-n-nc.UPF',
   author='TM',
   lloc=0,
   nlcc=.true.,
   tm=.true.
 /
3
6P  2  1  0.00  0.00  2.45  2.45  0.0
5D  3  2  5.00  0.00  2.45  2.45  0.0
6S  1  0  2.00  0.00  2.45  2.45  0.0
</PP_INPUTFILE>
  </PP_INFO>
  <!--                               -->
  <!-- END OF HUMAN READABLE SECTION -->
  <!--                               -->
  <PP_HEADER generated='Generated using "atomic" code by A. Dal Corso  v.5.0.99 svn rev. 10869'
             author="TM"
             date="10Apr2014"
             comment=""
             element="Re"
             pseudo_type="NC"
             relativistic="scalar"
             is_ultrasoft="F"
             is_paw="F"
             is_coulomb="F"
             has_so="F"
             has_wfc="F"
             has_gipaw="F"
             paw_as_gipaw="F"
             core_correction="T"
             functional="LDA"
             z_valence="7.000000000000000E+000"
             total_psenergy="-3.351886389915656E+001"
             wfc_cutoff="0.000000000000000E+000"
             rho_cutoff="0.000000000000000E+000"
             l_max="2"
             l_max_rho="4"
             l_local="0"
             mesh_size="1275"
             number_of_wfc="3"
             number_of_proj="2"/>
  <PP_MESH dx="1.250000000000000E-002" mesh="1275" xmin="-7.000000000000000E+000" rmax="1.000000000000000E+002"
zmesh="7.500000000000000E+001">
    <PP_R type="real" size="1275" columns="4">
 1.215842620739355E-005  1.231136038225363E-005  1.246621823222110E-005  1.262302395415005E-005 
 1.278180204925360E-005  1.294257732693212E-005  1.310537490864985E-005  1.327022023186015E-005 
 1.343713905398014E-005  1.360615745641540E-005  1.377730184863516E-005  1.395059897229891E-005 
 1.412607590543480E-005  1.430376006667062E-005  1.448367921951810E-005  1.466586147671091E-005 
 1.485033530459738E-005  1.503712952758843E-005  1.522627333266143E-005  1.541779627392077E-005 
 1.561172827721566E-005  1.580809964481617E-005  1.600694106014801E-005  1.620828359258686E-005 
 1.641215870231308E-005  1.661859824522733E-005  1.682763447792819E-005  1.703930006275233E-005 
 1.725362807287797E-005  1.747065199749280E-005  1.769040574702655E-005  1.791292365844969E-005 
 1.813824050063858E-005  1.836639147980823E-005  1.859741224501332E-005  1.883133889371842E-005 
 1.906820797743833E-005  1.930805650744928E-005  1.955092196057204E-005  1.979684228502782E-005 
 2.004585590636763E-005  2.029800173347642E-005  2.055331916465267E-005  2.081184809376443E-005 
 2.107362891648289E-005  2.133870253659419E-005  2.160711037239076E-005  2.187889436314301E-005 
 2.215409697565245E-005  2.243276121088722E-005  2.271493061070099E-005  2.300064926463656E-005 
 2.328996181681493E-005  2.358291347291094E-005  2.387955000721693E-005  2.417991776979487E-005 
 2.448406369371876E-005  2.479203530240801E-005  2.510388071705303E-005  2.541964866413435E-005 
 2.573938848303612E-005  2.606315013375556E-005  2.639098420470929E-005  2.672294192063785E-005 
 2.705907515060979E-005  2.739943641612612E-005  2.774407889932706E-005  2.809305645130179E-005 
 2.844642360050277E-005  2.880423556126606E-005  2.916654824243847E-005  2.953341825611356E-005 
 2.990490292647738E-005  3.028106029876542E-005  3.066194914833248E-005  3.104762898983618E-005 
 3.143816008653644E-005  3.183360345971164E-005  3.223402089819338E-005  3.263947496802111E-005 
 3.305002902221811E-005  3.346574721069065E-005  3.388669449025145E-005  3.431293663476933E-005 
 3.474454024544664E-005  3.518157276122562E-005  3.562410246932601E-005  3.607219851591502E-005 
 3.652593091691158E-005  3.698537056892652E-005  3.745058926034017E-005  3.792165968251957E-005 
 3.839865544117657E-005  3.888165106786890E-005  3.937072203164596E-005  3.986594475084080E-005 
 4.036739660501087E-005  4.087515594702858E-005  4.138930211532412E-005  4.190991544628241E-005 
 4.243707728679556E-005  4.297087000697369E-005  4.351137701301531E-005  4.405868276023976E-005 
 4.461287276628363E-005  4.517403362446282E-005  4.574225301730312E-005  4.631761973024071E-005 
 4.690022366549505E-005  4.749015585611640E-005  4.808750848020974E-005  4.869237487533791E-005 
 4.930484955310576E-005  4.992502821392774E-005  5.055300776198144E-005  5.118888632034885E-005 
 5.183276324634840E-005  5.248473914705978E-005  5.314491589504387E-005  5.381339664426078E-005 
 5.449028584618756E-005  5.517568926613916E-005  5.586971399979439E-005  5.657246848992987E-005 
 5.728406254336453E-005  5.800460734811692E-005  5.873421549077875E-005  5.947300097410669E-005 
 6.022107923483555E-005  6.097856716171564E-005  6.174558311377661E-005  6.252224693882148E-005 
 6.330867999215304E-005  6.410500515553581E-005  6.491134685639684E-005  6.572783108726735E-005 
 6.655458542546956E-005  6.739173905305086E-005  6.823942277696869E-005  6.909776904952966E-005 
 6.996691198908512E-005  7.084698740098768E-005  7.173813279881094E-005  7.264048742583633E-005 
 7.355419227681029E-005  7.447939011997466E-005  7.541622551937478E-005  7.636484485744780E-005 
 7.732539635789522E-005  7.829803010884336E-005  7.928289808629459E-005  8.028015417787412E-005 
 8.128995420687518E-005  8.231245595660668E-005  8.334781919504749E-005  8.439620569980996E-005 
 8.545777928341844E-005  8.653270581890516E-005  8.762115326572817E-005  8.872329169601565E-005 
 8.983929332113956E-005  9.096933251862437E-005  9.211358585939376E-005  9.327223213536014E-005 
 9.444545238736167E-005  9.563342993344931E-005  9.683635039753189E-005  9.805440173837914E-005 
 9.928777427899117E-005  1.005366607363370E-004  1.018012562514662E-004  1.030817584200009E-004 
 1.043783673230103E-004  1.056912855582733E-004  1.070207182719355E-004  1.083668731905628E-004 
 1.097299606536004E-004  1.111101936462375E-004  1.125077878326871E-004  1.139229615898846E-004 
 1.153559360416085E-004  1.168069350930324E-004  1.182761854657101E-004  1.197639167330015E-004 
 1.212703613559443E-004  1.227957547195752E-004  1.243403351697110E-004  1.259043440501895E-004 
 1.274880257405801E-004  1.290916276943692E-004  1.307154004776244E-004  1.323595978081468E-004 
 1.340244765951145E-004  1.357102969792249E-004  1.374173223733433E-004  1.391458195036601E-004 
 1.408960584513687E-004  1.426683126948657E-004  1.444628591524820E-004  1.462799782257532E-004 
 1.481199538432307E-004  1.499830735048489E-004  1.518696283268450E-004  1.537799130872483E-004 
 1.557142262719394E-004  1.576728701212882E-004  1.596561506773816E-004  1.616643778318413E-004 
 1.636978653742458E-004  1.657569310411612E-004  1.678418965657867E-004  1.699530877282276E-004 
 1.720908344063983E-004  1.742554706275664E-004  1.764473346205459E-004  1.786667688685444E-004 
 1.809141201626791E-004  1.831897396561619E-004  1.854939829191683E-004  1.878272099943965E-004 
 1.901897854533234E-004  1.925820784531717E-004  1.950044627945896E-004  1.974573169800587E-004 
 1.999410242730362E-004  2.024559727578393E-004  2.050025554002858E-004  2.075811701090945E-004 
 2.101922197980598E-004  2.128361124490083E-004  2.155132611755450E-004  2.182240842876057E-004 
 2.209690053568167E-004  2.237484532826794E-004  2.265628623595878E-004  2.294126723446851E-004 
 2.322983285265802E-004  2.352202817949222E-004  2.381789887108538E-004  2.411749115783508E-004 
 2.442085185164557E-004  2.472802835324251E-004  2.503906865957921E-004  2.535402137133634E-004 
 2.567293570051591E-004  2.599586147813066E-004  2.632284916199038E-004  2.665394984458591E-004 
 2.698921526107252E-004  2.732869779735368E-004  2.767245049826632E-004  2.802052707586937E-004 
 2.837298191783623E-004  2.872987009595303E-004  2.909124737472370E-004  2.945717022008326E-004 
 2.982769580822080E-004  3.020288203451329E-004  3.058278752257190E-004  3.096747163340210E-004 
 3.135699447467881E-004  3.175141691013850E-004  3.215080056908917E-004  3.255520785604005E-004 
 3.296470196045253E-004  3.337934686661353E-004  3.379920736363326E-004  3.422434905556858E-004 
 3.465483837167380E-004  3.509074257678042E-004  3.553212978180731E-004  3.597906895440331E-004 
 3.643162992972342E-004  3.688988342134077E-004  3.735390103229576E-004  3.782375526628413E-004 
 3.829951953898591E-004  3.878126818953664E-004  3.926907649214305E-004  3.976302066784495E-004 
 4.026317789642467E-004  4.076962632846679E-004  4.128244509756919E-004  4.180171433270785E-004 
 4.232751517075727E-004  4.285992976916809E-004  4.339904131880458E-004  4.394493405694316E-004 
 4.449769328043477E-004  4.505740535903274E-004  4.562415774888804E-004  4.619803900621470E-004 
 4.677913880112672E-004  4.736754793164929E-004  4.796335833790622E-004  4.856666311648565E-004 
 4.917755653498668E-004  4.979613404674883E-004  5.042249230576678E-004  5.105672918179288E-004 
 5.169894377562935E-004  5.234923643461309E-004  5.300770876829509E-004  5.367446366431714E-004 
 5.434960530448830E-004  5.503323918106340E-004  5.572547211322655E-004  5.642641226378175E-004 
 5.713616915605358E-004  5.785485369100050E-004  5.858257816454323E-004  5.931945628511136E-004 
 6.006560319141043E-004  6.082113547041254E-004  6.158617117557350E-004  6.236082984527864E-004 
 6.314523252152124E-004  6.393950176881530E-004  6.474376169334663E-004  6.555813796236478E-004 
 6.638275782381859E-004  6.721775012623917E-004  6.806324533887256E-004  6.891937557206588E-004 
 6.978627459790984E-004  7.066407787114107E-004  7.155292255030685E-004  7.245294751919665E-004 
 7.336429340854302E-004  7.428710261799520E-004  7.522151933836980E-004  7.616768957418039E-004 
 7.712576116645131E-004  7.809588381581808E-004  7.907820910591829E-004  8.007289052707726E-004 
 8.108008350029063E-004  8.209994540150965E-004  8.313263558623128E-004  8.417831541439783E-004 
 8.523714827561009E-004  8.630929961465673E-004  8.739493695736581E-004  8.849422993678085E-004 
 8.960735031966634E-004  9.073447203334692E-004  9.187577119288344E-004  9.303142612859155E-004 
 9.420161741390616E-004  9.538652789359629E-004  9.658634271233527E-004  9.780124934362952E-004 
 9.903143761911188E-004  1.002770997582032E-003  1.015384303981471E-003  1.028156266244223E-003 
 1.041088880015376E-003  1.054184166042142E-003  1.067444170489608E-003  1.080870965260443E-003 
 1.094466648318651E-003  1.108233344017367E-003  1.122173203430805E-003  1.136288404690358E-003 
 1.150581153324940E-003  1.165053682605605E-003  1.179708253894497E-003  1.194547156998196E-003 
 1.209572710525501E-003  1.224787262249719E-003  1.240193189475513E-003  1.255792899410356E-003 
 1.271588829540662E-003  1.287583448012652E-003  1.303779254018001E-003  1.320178778184351E-003 
 1.336784582970717E-003  1.353599263067881E-003  1.370625445803819E-003  1.387865791554222E-003 
 1.405322994158191E-003  1.422999781339150E-003  1.440898915131057E-003  1.459023192309987E-003 
 1.477375444831120E-003  1.495958540271250E-003  1.514775382276850E-003  1.533828911017766E-003 
 1.553122103646627E-003  1.572657974764034E-003  1.592439576889595E-003  1.612470000938889E-003 
 1.632752376706426E-003  1.653289873354684E-003  1.674085699909297E-003  1.695143105760474E-003 
 1.716465381170723E-003  1.738055857788956E-003  1.759917909171070E-003  1.782054951307073E-003 
 1.804470443154836E-003  1.827167887180566E-003  1.850150829906071E-003  1.873422862462909E-003 
 1.896987621153516E-003  1.920848788019377E-003  1.945010091416366E-003  1.969475306597291E-003 
 1.994248256301802E-003  2.019332811353689E-003  2.044732891265713E-003  2.070452464852040E-003 
 2.096495550848369E-003  2.122866218539871E-003  2.149568588397025E-003  2.176606832719445E-003 
 2.203985176287821E-003  2.231707897024034E-003  2.259779326659603E-003  2.288203851412518E-003 
 2.316985912672602E-003  2.346130007695487E-003  2.375640690305313E-003  2.405522571606278E-003 
 2.435780320703131E-003  2.466418665430724E-003  2.497442393092760E-003  2.528856351209804E-003 
 2.560665448276723E-003  2.592874654529649E-003  2.625489002722587E-003  2.658513588913802E-003 
 2.691953573262073E-003  2.725814180832988E-003  2.760100702415370E-003  2.794818495347971E-003 
 2.829972984356575E-003  2.865569662401609E-003  2.901614091536440E-003  2.938111903776453E-003 
 2.975068801979064E-003  3.012490560734812E-003  3.050383027269633E-003  3.088752122358519E-003 
 3.127603841250638E-003  3.166944254606108E-003  3.206779509444562E-003  3.247115830105611E-003 
 3.287959519221422E-003  3.329316958701516E-003  3.371194610729953E-003  3.413599018775068E-003 
 3.456536808611888E-003  3.500014689357432E-003  3.544039454519024E-003  3.588617983055785E-003 
 3.633757240453502E-003  3.679464279812976E-003  3.725746242952099E-003  3.772610361521774E-003 
 3.820063958135868E-003  3.868114447515405E-003  3.916769337647106E-003  3.966036230956543E-003 
 4.015922825496031E-003  4.066436916147457E-003  4.117586395840265E-003  4.169379256784718E-003 
 4.221823591720712E-003  4.274927595182279E-003  4.328699564777996E-003  4.383147902487523E-003 
 4.438281115974396E-003  4.494107819915393E-003  4.550636737346586E-003  4.607876701026327E-003 
 4.665836654815405E-003  4.724525655074517E-003  4.783952872079357E-003  4.844127591453486E-003 
 4.905059215619231E-003  4.966757265266840E-003  5.029231380842094E-003  5.092491324052655E-003 
 5.156546979393353E-003  5.221408355690653E-003  5.287085587666573E-003  5.353588937522224E-003 
 5.420928796541324E-003  5.489115686713850E-003  5.558160262380112E-003  5.628073311895541E-003 
 5.698865759316357E-003  5.770548666106500E-003  5.843133232865994E-003  5.916630801081065E-003 
 5.991052854896289E-003  6.066411022908983E-003  6.142717079986214E-003  6.219982949104649E-003 
 6.298220703213529E-003  6.377442567121121E-003  6.457660919404835E-003  6.538888294345418E-003 
 6.621137383885465E-003  6.704421039612545E-003  6.788752274767324E-003  6.874144266276858E-003 
 6.960610356813552E-003  7.048164056879969E-003  7.136819046919871E-003  7.226589179455830E-003 
 7.317488481253688E-003  7.409531155514289E-003  7.502731584092748E-003  7.597104329745640E-003 
 7.692664138406490E-003  7.789425941489814E-003  7.887404858224206E-003  7.986616198014744E-003 
 8.087075462835113E-003  8.188798349649839E-003  8.291800752866937E-003  8.396098766821472E-003 
 8.501708688290317E-003  8.608647019038561E-003  8.716930468397966E-003  8.826575955877790E-003 
 8.937600613808529E-003  9.050021790018865E-003  9.163857050546297E-003  9.279124182381894E-003 
 9.395841196249515E-003  9.514026329420038E-003  9.633698048560969E-003  9.754875052621891E-003 
 9.877576275756240E-003  1.000182089027976E-002  1.012762830966625E-002  1.025501819158095E-002 
 1.038401044095207E-002  1.051462521308102E-002  1.064688291679170E-002  1.078080421761937E-002 
 1.091641004103977E-002  1.105372157573867E-002  1.119276027692277E-002  1.133354786967198E-002 
 1.147610635233411E-002  1.162045799996211E-002  1.176662536779461E-002  1.191463129478021E-002 
 1.206449890714613E-002  1.221625162201171E-002  1.236991315104738E-002  1.252550750417968E-002 
 1.268305899334285E-002  1.284259223627763E-002  1.300413216037778E-002  1.316770400658509E-002 
 1.333333333333333E-002  1.350104602054179E-002  1.367086827365906E-002  1.384282662775767E-002 
 1.401694795168033E-002  1.419325945223812E-002  1.437178867846176E-002  1.455256352590603E-002 
 1.473561224100864E-002  1.492096342550375E-002  1.510864604089102E-002  1.529868941296097E-002 
 1.549112323637711E-002  1.568597757931588E-002  1.588328288816479E-002  1.608306999227974E-002 
 1.628537010880227E-002  1.649021484753714E-002  1.669763621589154E-002  1.690766662387627E-002 
 1.712033888916989E-002  1.733568624224655E-002  1.755374233156829E-002  1.777454122884271E-002 
 1.799811743434672E-002  1.822450588231728E-002  1.845374194641002E-002  1.868586144522632E-002 
 1.892090064791011E-002  1.915889627981501E-002  1.939988552824268E-002  1.964390604825354E-002 
 1.989099596855028E-002  2.014119389743564E-002  2.039453892884506E-002  2.065107064845511E-002 
 2.091082913986892E-002  2.117385499087925E-002  2.144018929981045E-002  2.170987368194015E-002 
 2.198295027600171E-002  2.225946175076857E-002  2.253945131172122E-002  2.282296270779820E-002 
 2.311004023823195E-002  2.340072875947065E-002  2.369507369218718E-002  2.399312102837612E-002 
 2.429491733854013E-002  2.460050977896668E-002  2.490994609909630E-002  2.522327464898360E-002 
 2.554054438685196E-002  2.586180488674340E-002  2.618710634626465E-002  2.651649959443056E-002 
 2.685003609960636E-002  2.718776797754954E-002  2.752974799955317E-002  2.787602960069143E-002 
 2.822666688816900E-002  2.858171464977546E-002  2.894122836244591E-002  2.930526420092937E-002 
 2.967387904656625E-002  3.004713049617611E-002  3.042507687105739E-002  3.080777722610006E-002 
 3.119529135901323E-002  3.158767981966856E-002  3.198500391956131E-002  3.238732574139051E-002 
 3.279470814875934E-002  3.320721479599776E-002  3.362491013810866E-002  3.404785944083902E-002 
 3.447612879087796E-002  3.490978510618269E-002  3.534889614643477E-002  3.579353052362763E-002 
 3.624375771278727E-002  3.669964806282810E-002  3.716127280754469E-002  3.762870407674266E-002 
 3.810201490750888E-002  3.858127925562348E-002  3.906657200711607E-002  3.955796898996625E-002 
 4.005554698595243E-002  4.055938374264888E-002  4.106955798557375E-002  4.158614943049060E-002 
 4.210923879586358E-002  4.263890781547033E-002  4.317523925117284E-002  4.371831690584898E-002 
 4.426822563648735E-002  4.482505136744574E-002  4.538888110387757E-002  4.595980294532636E-002 
 4.653790609949122E-002  4.712328089616631E-002  4.771601880135441E-002  4.831621243155921E-002 
 4.892395556825662E-002  4.953934317254805E-002  5.016247139999886E-002  5.079343761566216E-002 
 5.143234040929297E-002  5.207927961075273E-002  5.273435630560769E-002  5.339767285092439E-002 
 5.406933289126235E-002  5.474944137486948E-002  5.543810457008014E-002  5.613543008191946E-002 
 5.684152686891763E-002  5.755650526013393E-002  5.828047697239676E-002  5.901355512775917E-002 
 5.975585427117419E-002  6.050749038839343E-002  6.126858092408920E-002  6.203924480020625E-002 
 6.281960243454326E-002  6.360977575956804E-002  6.440988824147045E-002  6.522006489945342E-002 
 6.604043232526817E-002  6.687111870299417E-002  6.771225382906776E-002  6.856396913256389E-002 
 6.942639769573133E-002  7.029967427478787E-002  7.118393532097574E-002  7.207931900188222E-002 
 7.298596522302940E-002  7.390401564973366E-002  7.483361372924206E-002  7.577490471314598E-002 
 7.672803568007641E-002  7.769315555868639E-002  7.867041515092024E-002  7.965996715557762E-002 
 8.066196619217267E-002  8.167656882509315E-002  8.270393358806495E-002  8.374422100892222E-002 
 8.479759363469105E-002  8.586421605698752E-002  8.694425493773483E-002  8.803787903520580E-002 
 8.914525923039029E-002  9.026656855369698E-002  9.140198221198910E-002  9.255167761596048E-002 
 9.371583440785734E-002  9.489463448954663E-002  9.608826205093954E-002  9.729690359877116E-002 
 9.852074798574201E-002  9.975998644002781E-002  1.010148125951580E-001  1.022854225202724E-001 
 1.035720147507570E-001  1.048747903192652E-001  1.061939527871304E-001  1.075297082761717E-001 
 1.088822655009020E-001  1.102518358011396E-001  1.116386331750302E-001  1.130428743124851E-001 
 1.144647786290386E-001  1.159045683001333E-001  1.173624682958348E-001  1.188387064159832E-001 
 1.203335133257884E-001  1.218471225918710E-001  1.233797707187585E-001  1.249316971858391E-001 
 1.265031444847803E-001  1.280943581574202E-001  1.297055868341318E-001  1.313370822726744E-001 
 1.329890993975297E-001  1.346618963397340E-001  1.363557344772135E-001  1.380708784756226E-001 
 1.398075963297009E-001  1.415661594051468E-001  1.433468424810181E-001  1.451499237926687E-001 
 1.469756850752214E-001  1.488244116075915E-001  1.506963922570612E-001  1.525919195244149E-001 
 1.545112895896454E-001  1.564548023582295E-001  1.584227615079919E-001  1.604154745365539E-001 
 1.624332528093796E-001  1.644764116084302E-001  1.665452701814242E-001  1.686401517917230E-001 
 1.707613837688406E-001  1.729092975595884E-001  1.750842287798671E-001  1.772865172671038E-001 
 1.795165071333561E-001  1.817745468190768E-001  1.840609891475613E-001  1.863761913800753E-001 
 1.887205152716774E-001  1.910943271277460E-001  1.934979978612123E-001  1.959319030505192E-001 
 1.983964229983047E-001  2.008919427908239E-001  2.034188523581224E-001  2.059775465349603E-001 
 2.085684251225089E-001  2.111918929508191E-001  2.138483599420757E-001  2.165382411746515E-001 
 2.192619569479608E-001  2.220199328481353E-001  2.248125998145206E-001  2.276403942070115E-001 
 2.305037578742355E-001  2.334031382225905E-001  2.363389882861552E-001  2.393117667974754E-001 
 2.423219382592409E-001  2.453699730168676E-001  2.484563473319869E-001  2.515815434568651E-001 
 2.547460497097556E-001  2.579503605511976E-001  2.611949766612803E-001  2.644804050178711E-001 
 2.678071589758356E-001  2.711757583472484E-001  2.745867294826138E-001  2.780406053531125E-001 
 2.815379256338750E-001  2.850792367883113E-001  2.886650921534943E-001  2.922960520266196E-001 
 2.959726837525555E-001  2.996955618124884E-001  3.034652679136897E-001  3.072823910804080E-001 
 3.111475277459030E-001  3.150612818456433E-001  3.190242649116687E-001  3.230370961681464E-001 
 3.271004026281250E-001  3.312148191915046E-001  3.353809887442453E-001  3.395995622588146E-001 
 3.438711988959075E-001  3.481965661074399E-001  3.525763397408374E-001  3.570112041446421E-001 
 3.615018522754388E-001  3.660489858061347E-001  3.706533152355959E-001  3.753155599996620E-001 
 3.800364485835642E-001  3.848167186357471E-001  3.896571170831326E-001  3.945584002478264E-001 
 3.995213339652937E-001  4.045466937040261E-001  4.096352646867058E-001  4.147878420129021E-001 
 4.200052307833062E-001  4.252882462255267E-001  4.306377138214763E-001  4.360544694363490E-001 
 4.415393594492308E-001  4.470932408853462E-001  4.527169815499674E-001  4.584114601640163E-001 
 4.641775665013607E-001  4.700162015278472E-001  4.759282775420788E-001  4.819147183179591E-001 
 4.879764592490405E-001  4.941144474946746E-001  5.003296421280132E-001  5.066230142858640E-001 
 5.129955473204285E-001  5.194482369529603E-001  5.259820914293407E-001  5.325981316776258E-001 
 5.392973914675658E-001  5.460809175721307E-001  5.529497699310775E-001  5.599050218165601E-001 
 5.669477600008371E-001  5.740790849260795E-001  5.813001108763135E-001  5.886119661515372E-001 
 5.960157932440114E-001  6.035127490167835E-001  6.111040048844468E-001  6.187907469961730E-001 
 6.265741764210579E-001  6.344555093357827E-001  6.424359772146508E-001  6.505168270220061E-001 
 6.586993214070692E-001  6.669847389012376E-001  6.753743741178488E-001  6.838695379544760E-001 
 6.924715577977533E-001  7.011817777307794E-001  7.100015587431426E-001  7.189322789435676E-001 
 7.279753337752565E-001  7.371321362339265E-001  7.464041170885888E-001  7.557927251051183E-001 
 7.652994272726165E-001  7.749257090326398E-001  7.846730745112994E-001  7.945430467542799E-001 
 8.045371679648274E-001  8.146569997447116E-001  8.249041233382385E-001  8.352801398793189E-001 
 8.457866706416446E-001  8.564253572920261E-001  8.671978621468935E-001  8.781058684320493E-001 
 8.891510805456695E-001  9.003352243246153E-001  9.116600473141097E-001  9.231273190407819E-001 
 9.347388312891715E-001  9.464963983816924E-001  9.584018574621209E-001  9.704570687826632E-001 
 9.826639159946112E-001  9.950243064426788E-001  1.007540171463022E+000  1.020213466685012E+000 
 1.033046172336813E+000  1.046040293554789E+000  1.059197860696818E+000  1.072520929659537E+000 
 1.086011582199575E+000  1.099671926258841E+000  1.113504096293884E+000  1.127510253609413E+000 
 1.141692586696009E+000  1.156053311572065E+000  1.170594672130066E+000  1.185318940487178E+000 
 1.200228417340291E+000  1.215325432325499E+000  1.230612344382105E+000  1.246091542121223E+000 
 1.261765444198989E+000  1.277636499694492E+000  1.293707188492446E+000  1.309980021670668E+000 
 1.326457541892453E+000  1.343142323803855E+000  1.360036974435996E+000  1.377144133612411E+000 
 1.394466474361523E+000  1.412006703334320E+000  1.429767561227261E+000  1.447751823210528E+000 
 1.465962299361648E+000  1.484401835104565E+000  1.503073311654258E+000  1.521979646466921E+000 
 1.541123793695836E+000  1.560508744652959E+000  1.580137528276311E+000  1.600013211603274E+000 
 1.620138900249800E+000  1.640517738895687E+000  1.661152911775939E+000  1.682047643178296E+000 
 1.703205197947054E+000  1.724628881993186E+000  1.746322042810915E+000  1.768288070000755E+000 
 1.790530395799140E+000  1.813052495614735E+000  1.835857888571450E+000  1.858950138058336E+000 
 1.882332852286360E+000  1.906009684852187E+000  1.929984335309082E+000  1.954260549744949E+000 
 1.978842121367688E+000  2.003732891097880E+000  2.028936748168928E+000  2.054457630734785E+000 
 2.080299526485268E+000  2.106466473269166E+000  2.132962559725156E+000  2.159791925920645E+000 
 2.186958763998693E+000  2.214467318833015E+000  2.242321888691273E+000  2.270526825906682E+000 
 2.299086537558058E+000  2.328005486158459E+000  2.357288190352433E+000  2.386939225622089E+000 
 2.416963225002018E+000  2.447364879803200E+000  2.478148940346057E+000  2.509320216702673E+000 
 2.540883579448400E+000  2.572843960422888E+000  2.605206353500679E+000  2.637975815371543E+000 
 2.671157466330558E+000  2.704756491078199E+000  2.738778139530445E+000  2.773227727639075E+000 
 2.808110638222330E+000  2.843432321805948E+000  2.879198297474855E+000  2.915414153735522E+000 
 2.952085549389162E+000  2.989218214415964E+000  3.026817950870375E+000  3.064890633787718E+000 
 3.103442212102164E+000  3.142478709576248E+000  3.182006225742132E+000  3.222030936854624E+000 
 3.262559096856272E+000  3.303597038354538E+000  3.345151173611261E+000  3.387227995544630E+000 
 3.429834078743666E+000  3.472976080495557E+000  3.516660741825857E+000  3.560894888551762E+000 
 3.605685432348706E+000  3.651039371830274E+000  3.696963793641786E+000  3.743465873567594E+000 
 3.790552877652279E+000  3.838232163336045E+000  3.886511180604269E+000  3.935397473151631E+000 
 3.984898679560807E+000  4.035022534495998E+000  4.085776869911528E+000  4.137169616275552E+000 
 4.189208803809256E+000  4.241902563741574E+000  4.295259129579687E+000  4.349286838395577E+000 
 4.403994132128652E+000  4.459389558904867E+000  4.515481774372367E+000  4.572279543053925E+000 
 4.629791739716468E+000  4.688027350757717E+000  4.746995475610388E+000  4.806705328163970E+000 
 4.867166238204385E+000  4.928387652871857E+000  4.990379138136962E+000  5.053150380295407E+000 
 5.116711187481497E+000  5.181071491200651E+000  5.246241347881286E+000  5.312230940446080E+000 
 5.379050579903135E+000  5.446710706957074E+000  5.515221893640384E+000  5.584594844965391E+000 
 5.654840400596861E+000  5.725969536545786E+000  5.797993366884381E+000  5.870923145482652E+000 
 5.944770267766901E+000  6.019546272500207E+000  6.095262843585453E+000  6.171931811890928E+000 
 6.249565157098893E+000  6.328175009577506E+000  6.407773652276125E+000  6.488373522644630E+000 
 6.569987214576757E+000  6.652627480377894E+000  6.736307232757727E+000  6.821039546847789E+000 
 6.906837662244560E+000  6.993714985078139E+000  7.081685090106948E+000  7.170761722838899E+000 
 7.260958801679059E+000  7.352290420104517E+000  7.444770848866480E+000  7.538414538220069E+000 
 7.633236120182292E+000  7.729250410818219E+000  7.826472412556118E+000  7.924917316531577E+000 
 8.024600504961096E+000  8.125537553545708E+000  8.227744233904582E+000  8.331236516039478E+000 
 8.436030570830054E+000  8.542142772560545E+000  8.649589701478387E+000  8.758388146384798E+000 
 8.868555107258157E+000  8.980107797910259E+000  9.093063648675940E+000  9.207440309136725E+000 
 9.323255650878478E+000  9.440527770283991E+000  9.559274991360532E+000  9.679515868602952E+000 
 9.801269189892986E+000  9.924553979434760E+000  1.004938950072748E+001  1.017579525957536E+001 
 1.030379100713533E+001  1.043339674300342E+001  1.056463271833949E+001  1.069751943903172E+001 
 1.083207766890059E+001  1.096832843294323E+001  1.110629302061878E+001  1.124599298917471E+001 
 1.138745016701535E+001  1.153068665711256E+001  1.167572484045928E+001  1.182258737956679E+001 
 1.197129722200558E+001  1.212187760399110E+001  1.227435205401441E+001  1.242874439651851E+001 
 1.258507875562106E+001  1.274337955888370E+001  1.290367154112902E+001  1.306597974830539E+001 
 1.323032954140035E+001  1.339674660040349E+001  1.356525692831882E+001  1.373588685522792E+001 
 1.390866304240405E+001  1.408361248647794E+001  1.426076252365619E+001  1.444014083399248E+001 
 1.462177544571278E+001  1.480569473959473E+001  1.499192745340214E+001  1.518050268637548E+001 
 1.537144990377852E+001  1.556479894150247E+001  1.576058001072789E+001  1.595882370264511E+001 
 1.615956099323438E+001  1.636282324810569E+001  1.656864222739994E+001  1.677705009075142E+001 