<UPF version="2.0.1">
  <PP_INFO>
    Generated using "atomic" code by A. Dal Corso  v.5.0.2 svn rev. 10551
    Author: ADC
    Generation date: 24Oct2013
    Pseudopotential type: USPP
    Element: Xe
    Functional: LDA

    Suggested minimum cutoff for wavefunctions:  43. Ry
    Suggested minimum cutoff for charge density: 210. Ry
    The Pseudo was generated with a Scalar-Relativistic Calculation
    Local Potential by smoothing AE potential with Bessel fncs, cutoff radius:   2.0000

    Valence configuration: 
    nl pn  l   occ       Rcut    Rcut US       E pseu
    5S  1  0  2.00      1.400      1.600    -1.468839
    5P  2  1  6.00      1.400      2.100    -0.616571
    4D  3  2 10.00      1.400      1.700    -4.369451
    Generation configuration:
    5S  1  0  2.00      1.400      1.600    -1.468834
    5S  1  0  0.00      1.400      1.600     0.500000
    5P  2  1  6.00      1.400      2.100    -0.616569
    5P  2  1  0.00      1.400      2.100     0.200000
    4D  3  2 10.00      1.400      1.700    -4.369451
    4D  3  2  0.00      1.400      1.700     0.300000

    Pseudization used: troullier-martins
<PP_INPUTFILE>
 &input
   title='Xe q',
   zed=54.,
   rel=1,
   config='[Kr] 4d10.0 5s2.0 5p6.0 5d-2.0',
   iswitch=3,
   dft='LDA'
 /
 &inputp
   pseudotype=3,
   file_pseudopw='Xe.pz-n-rrkjus_psl.0.3.1.UPF',
   author='ADC',
   lloc=-1,
   rcloc=2.0,
   which_augfun ='PSQ',
   rmatch_augfun_nc= .true.,
   nlcc=.true.,
   tm=.true.
 /
6
5S  1  0  2.00  0.00  1.40  1.60  0.0
5S  1  0  0.00  0.50  1.40  1.60  0.0
5P  2  1  6.00  0.00  1.40  2.10  0.0
5P  2  1  0.00  0.20  1.40  2.10  0.0
4D  3  2 10.00  0.00  1.40  1.70  0.0
4D  3  2  0.00  0.30  1.40  1.70  0.0
</PP_INPUTFILE>
  </PP_INFO>
  <!--                               -->
  <!-- END OF HUMAN READABLE SECTION -->
  <!--                               -->
  <PP_HEADER generated='Generated using "atomic" code by A. Dal Corso  v.5.0.2 svn rev. 10551'
             author="ADC"
             date="24Oct2013"
             comment=""
             element="Xe"
             pseudo_type="USPP"
             relativistic="scalar"
             is_ultrasoft="T"
             is_paw="F"
             is_coulomb="F"
             has_so="F"
             has_wfc="F"
             has_gipaw="F"
             paw_as_gipaw="F"
             core_correction="T"
             functional="LDA"
             z_valence="1.800000000000000E+001"
             total_psenergy="-2.929733561430954E+002"
             wfc_cutoff="4.250601220657612E+001"
             rho_cutoff="2.096549988819782E+002"
             l_max="2"
             l_max_rho="4"
             l_local="-1"
             mesh_size="1249"
             number_of_wfc="3"
             number_of_proj="6"/>
  <PP_MESH dx="1.250000000000000E-002" mesh="1249" xmin="-7.000000000000000E+000" rmax="1.000000000000000E+002"
zmesh="5.400000000000000E+001">
    <PP_R type="real" size="1249" columns="4">
 1.688670306582437E-005  1.709911164201893E-005  1.731419198919597E-005  1.753197771409730E-005 
 1.775250284618555E-005  1.797580184296127E-005  1.820190959534701E-005  1.843086143313910E-005 
 1.866269313052797E-005  1.889744091168805E-005  1.913514145643772E-005  1.937583190597071E-005 
 1.961954986865945E-005  1.986633342593142E-005  2.011622113821959E-005  2.036925205098738E-005 
 2.062546570082969E-005  2.088490212165060E-005  2.114760185091866E-005  2.141360593600107E-005 
 2.168295594057730E-005  2.195569395113357E-005  2.223186258353891E-005  2.251150498970398E-005 
 2.279466486432372E-005  2.308138645170462E-005  2.337171455267805E-005  2.366569453160045E-005 
 2.396337232344163E-005  2.426479444096222E-005  2.457000798198132E-005  2.487906063673568E-005 
 2.519200069533137E-005  2.550887705528920E-005  2.582973922918516E-005  2.615463735238670E-005 
 2.648362219088656E-005  2.681674514923510E-005  2.715405827857228E-005  2.749561428476087E-005 
 2.784146653662171E-005  2.819166907427281E-005  2.854627661757315E-005  2.890534457467282E-005 
 2.926892905067069E-005  2.963708685638082E-005  3.000987551720938E-005  3.038735328214307E-005 
 3.076957913285063E-005  3.115661279289891E-005  3.154851473708471E-005  3.194534620088412E-005 
 3.234716919002073E-005  3.275404649015408E-005  3.316604167669018E-005  3.358321912471510E-005 
 3.400564401905384E-005  3.443338236445558E-005  3.486650099590699E-005  3.530506758907549E-005 
 3.574915067088350E-005  3.619881963021606E-005  3.665414472876290E-005  3.711519711199702E-005 
 3.758204882029137E-005  3.805477280017516E-005  3.853344291573202E-005  3.901813396014137E-005 
 3.950892166736496E-005  4.000588272398064E-005  4.050909478116454E-005  4.101863646682439E-005 
 4.153458739788525E-005  4.205702819272975E-005  4.258604048379511E-005  4.312170693032803E-005 
 4.366411123130061E-005  4.421333813848840E-005  4.476947346971303E-005  4.533260412225154E-005 
 4.590281808641404E-005  4.648020445929256E-005  4.706485345868256E-005  4.765685643717963E-005 
 4.825630589645368E-005  4.886329550170225E-005  4.947792009628612E-005  5.010027571654864E-005 
 5.073045960682164E-005  5.136857023462016E-005  5.201470730602801E-005  5.266897178127718E-005 
 5.333146589052302E-005  5.400229314981792E-005  5.468155837728605E-005  5.536936770950112E-005 
 5.606582861807066E-005  5.677104992642857E-005  5.748514182683905E-005  5.820821589761445E-005 
 5.894038512054938E-005  5.968176389857456E-005  6.043246807363238E-005  6.119261494477744E-005 
 6.196232328650504E-005  6.274171336730948E-005  6.353090696847657E-005  6.433002740311210E-005 
 6.513919953540979E-005  6.595854980016166E-005  6.678820622251352E-005  6.762829843796932E-005 
 6.847895771264689E-005  6.934031696378852E-005  7.021251078052978E-005  7.109567544492896E-005 
 7.198994895326168E-005  7.289547103758303E-005  7.381238318756094E-005  7.474082867258442E-005 
 7.568095256414938E-005  7.663290175852661E-005  7.759682499971444E-005  7.857287290268037E-005 
 7.956119797689518E-005  8.056195465016239E-005  8.157529929274826E-005  8.260139024181485E-005 
 8.364038782616047E-005  8.469245439127173E-005  8.575775432468973E-005  8.683645408169650E-005 
 8.792872221132367E-005  8.903472938268862E-005  9.015464841166229E-005  9.128865428787133E-005 
 9.243692420204105E-005  9.359963757368174E-005  9.477697607912317E-005  9.596912367990231E-005 
 9.717626665150713E-005  9.839859361248287E-005  9.963629555390408E-005  1.008895658692171E-004 
 1.021586003844587E-004  1.034435973888537E-004  1.047447576657983E-004  1.060622845242331E-004 
 1.073963838304100E-004  1.087472640400602E-004  1.101151362309647E-004  1.115002141359363E-004 
 1.129027141762155E-004  1.143228554952871E-004  1.157608599931215E-004  1.172169523608472E-004 
 1.186913601158589E-004  1.201843136373683E-004  1.216960462024002E-004  1.232267940222440E-004 
 1.247767962793605E-004  1.263462951647561E-004  1.279355359158247E-004  1.295447668546669E-004 
 1.311742394268912E-004  1.328242082409018E-004  1.344949311076832E-004  1.361866690810822E-004 
 1.378996864985989E-004  1.396342510226903E-004  1.413906336825919E-004  1.431691089166680E-004 
 1.449699546152921E-004  1.467934521642684E-004  1.486398864887993E-004  1.505095460980039E-004 
 1.524027231300006E-004  1.543197133975520E-004  1.562608164342876E-004  1.582263355415064E-004 
 1.602165778355673E-004  1.622318542958783E-004  1.642724798134863E-004  1.663387732402799E-004 
 1.684310574388115E-004  1.705496593327433E-004  1.726949099579320E-004  1.748671445141521E-004 
 1.770667024174723E-004  1.792939273532906E-004  1.815491673300338E-004  1.838327747335373E-004 
 1.861451063821034E-004  1.884865235822568E-004  1.908573921851991E-004  1.932580826439723E-004 
 1.956889700713455E-004  1.981504342984246E-004  2.006428599340028E-004  2.031666364246572E-004 
 2.057221581155983E-004  2.083098243122901E-004  2.109300393428403E-004  2.135832126211782E-004 
 2.162697587110269E-004  2.189900973906781E-004  2.217446537185856E-004  2.245338580997796E-004 
 2.273581463531192E-004  2.302179597793906E-004  2.331137452302592E-004  2.360459551780939E-004 
 2.390150477866643E-004  2.420214869827311E-004  2.450657425285359E-004  2.481482900952005E-004 
 2.512696113370543E-004  2.544301939668915E-004  2.576305318321781E-004  2.608711249922173E-004 
 2.641524797962825E-004  2.674751089627385E-004  2.708395316591522E-004  2.742462735834148E-004 
 2.776958670458837E-004  2.811888510525545E-004  2.847257713892858E-004  2.883071807070757E-004 
 2.919336386084164E-004  2.956057117347338E-004  2.993239738549236E-004  3.030890059550079E-004 
 3.069013963289121E-004  3.107617406703881E-004  3.146706421660941E-004  3.186287115898404E-004 
 3.226365673980280E-004  3.266948358262808E-004  3.308041509872969E-004  3.349651549699317E-004 
 3.391784979395218E-004  3.434448382394793E-004  3.477648424941557E-004  3.521391857130047E-004 
 3.565685513960543E-004  3.610536316407036E-004  3.655951272498663E-004  3.701937478414709E-004 
 3.748502119593406E-004  3.795652471854677E-004  3.843395902536989E-004  3.891739871648524E-004 
 3.940691933032810E-004  3.990259735549032E-004  4.040451024267180E-004  4.091273641678230E-004 
 4.142735528919556E-004  4.194844727015735E-004  4.247609378134987E-004  4.301037726861403E-004 
 4.355138121483168E-004  4.409919015297015E-004  4.465388967929051E-004  4.521556646672229E-004 
 4.578430827840630E-004  4.636020398140768E-004  4.694334356060175E-004  4.753381813273414E-004 
 4.813171996065805E-004  4.873714246775058E-004  4.935018025251015E-004  4.997092910333793E-004 
 5.059948601350476E-004  5.123594919630663E-004  5.188041810041078E-004  5.253299342539463E-004 
 5.319377713748043E-004  5.386287248546755E-004  5.454038401686535E-004  5.522641759422909E-004 
 5.592108041170093E-004  5.662448101175944E-004  5.733672930217943E-004  5.805793657320535E-004 
 5.878821551494065E-004  5.952768023495569E-004  6.027644627611746E-004  6.103463063464327E-004 
 6.180235177838162E-004  6.257972966532326E-004  6.336688576234450E-004  6.416394306418709E-004 
 6.497102611267599E-004  6.578826101617956E-004  6.661577546931420E-004  6.745369877289673E-004 
 6.830216185414817E-004  6.916129728715115E-004  7.003123931356497E-004  7.091212386360123E-004 
 7.180408857726298E-004  7.270727282585152E-004  7.362181773374318E-004  7.454786620044047E-004 
 7.548556292290042E-004  7.643505441814360E-004  7.739648904614800E-004  7.837001703303022E-004 
 7.935579049451886E-004  8.035396345972292E-004  8.136469189519893E-004  8.238813372932134E-004 
 8.342444887695893E-004  8.447379926446187E-004  8.553634885496319E-004  8.661226367399811E-004 
 8.770171183544617E-004  8.880486356779903E-004  8.992189124075921E-004  9.105296939217330E-004 
 9.219827475530360E-004  9.335798628644329E-004  9.453228519287855E-004  9.572135496120261E-004 
 9.692538138598590E-004  9.814455259880704E-004  9.937905909764839E-004  1.006290937766620E-003 
 1.018948519563097E-003  1.031765314138822E-003  1.044743324144025E-003  1.057884577419172E-003 
 1.071191127311824E-003  1.084665052997473E-003  1.098308459804421E-003  1.112123479542740E-003 
 1.126112270837370E-003  1.140277019465412E-003  1.154619938697657E-003  1.169143269644414E-003 
 1.183849281605696E-003  1.198740272425788E-003  1.213818568852303E-003  1.229086526899734E-003 
 1.244546532217588E-003  1.260201000463152E-003  1.276052377678937E-003  1.292103140674883E-003 
 1.308355797415363E-003  1.324812887411060E-003  1.341476982115768E-003  1.358350685328188E-003 
 1.375436633598776E-003  1.392737496641712E-003  1.410255977752043E-003  1.427994814228087E-003 
 1.445956777799133E-003  1.464144675058531E-003  1.482561347902233E-003  1.501209673972838E-003 
 1.520092567109237E-003  1.539212977801899E-003  1.558573893653896E-003  1.578178339847720E-003 
 1.598029379617972E-003  1.618130114730007E-003  1.638483685964580E-003  1.659093273608606E-003 
 1.679962097952084E-003  1.701093419791276E-003  1.722490540938213E-003  1.744156804736605E-003 
 1.766095596584253E-003  1.788310344462016E-003  1.810804519469445E-003  1.833581636367154E-003 
 1.856645254125995E-003  1.879998976483168E-003  1.903646452505304E-003  1.927591377158642E-003 
 1.951837491886377E-003  1.976388585193263E-003  2.001248493237580E-003  2.026421100430537E-003 
 2.051910340043222E-003  2.077720194821180E-003  2.103854697606736E-003  2.130317931969119E-003 
 2.157114032842538E-003  2.184247187172270E-003  2.211721634568882E-003  2.239541667970679E-003 
 2.267711634314481E-003  2.296235935214838E-003  2.325119027651802E-003  2.354365424667326E-003 
 2.383979696070449E-003  2.413966469151328E-003  2.444330429404265E-003  2.475076321259824E-003 
 2.506208948826161E-003  2.537733176639675E-003  2.569653930425098E-003  2.601976197865152E-003 
 2.634705029379883E-003  2.667845538915801E-003  2.701402904744952E-003  2.735382370274016E-003 
 2.769789244863614E-003  2.804628904657902E-003  2.839906793424601E-003  2.875628423405611E-003 
 2.911799376178290E-003  2.948425303527599E-003  2.985511928329201E-003  3.023065045443674E-003 
 3.061090522621973E-003  3.099594301422270E-003  3.138582398138337E-003  3.178060904739608E-003 
 3.218035989823058E-003  3.258513899577065E-003  3.299500958757379E-003  3.341003571675386E-003 
 3.383028223198792E-003  3.425581479764894E-003  3.468669990406612E-003  3.512300487791395E-003 
 3.556479789273226E-003  3.601214797957846E-003  3.646512503781371E-003  3.692379984602503E-003 
 3.738824407308435E-003  3.785853028934705E-003  3.833473197799126E-003  3.881692354649960E-003 
 3.930518033828576E-003  3.979957864446679E-003  4.030019571578389E-003  4.080710977467296E-003 
 4.132040002748701E-003  4.184014667687239E-003  4.236643093430047E-003  4.289933503275721E-003 
 4.343894223959219E-003  4.398533686952928E-003  4.453860429784114E-003  4.509883097368904E-003 
 4.566610443363085E-003  4.624051331529884E-003  4.682214737124935E-003  4.741109748298705E-003 
 4.800745567516512E-003  4.861131512996434E-003  4.922277020165310E-003  4.984191643133034E-003 
 5.046885056185419E-003  5.110367055295800E-003  5.174647559655693E-003  5.239736613224686E-003 
 5.305644386299817E-003  5.372381177104729E-003  5.439957413398758E-003  5.508383654106309E-003 
 5.577670590966709E-003  5.647829050204801E-003  5.718869994222591E-003  5.790804523312109E-003 
 5.863643877389878E-003  5.937399437753165E-003  6.012082728858329E-003  6.087705420121559E-003 
 6.164279327742216E-003  6.241816416549157E-003  6.320328801870258E-003  6.399828751425454E-003 
 6.480328687243619E-003  6.561841187603497E-003  6.644378988999107E-003  6.727954988129842E-003 
 6.812582243915599E-003  6.898273979537278E-003  6.985043584502909E-003  7.072904616739799E-003 
 7.161870804712991E-003  7.251956049570352E-003  7.343174427314685E-003  7.435540191003088E-003 
 7.529067772974062E-003  7.623771787102569E-003  7.719667031083489E-003  7.816768488743806E-003 
 7.915091332383830E-003  8.014650925147917E-003  8.115462823424992E-003  8.217542779279257E-003 
 8.320906742911513E-003  8.425570865151364E-003  8.531551499980854E-003  8.638865207089791E-003 
 8.747528754463234E-003  8.857559121001559E-003  8.968973499173381E-003  9.081789297701969E-003 
 9.196024144285367E-003  9.311695888350758E-003  9.428822603843505E-003  9.547422592051191E-003 
 9.667514384463267E-003  9.789116745666624E-003  9.912248676277598E-003  1.003692941591088E-002 
 1.016317844618568E-002  1.029101549376985E-002  1.042046053346215E-002  1.055153379131339E-002 
 1.068425574778679E-002  1.081864714095807E-002  1.095472896975584E-002  1.109252249724270E-002 
 1.123204925393766E-002  1.137333104118033E-002  1.151638993453741E-002  1.166124828725204E-002 
 1.180792873373655E-002  1.195645419310911E-002  1.210684787277495E-002  1.225913327205248E-002 
 1.241333418584518E-002  1.256947470835953E-002  1.272757923686986E-002  1.288767247553041E-002 
 1.304977943923544E-002  1.321392545752783E-002  1.338013617855690E-002  1.354843757308596E-002 
 1.371885593855033E-002  1.389141790316633E-002  1.406615043009202E-002  1.424308082164021E-002 
 1.442223672354453E-002  1.460364612927920E-002  1.478733738443291E-002  1.497333919113802E-002 
 1.516168061255523E-002  1.535239107741482E-002  1.554550038461495E-002  1.574103870787775E-002 
 1.593903660046404E-002  1.613952499994738E-002  1.634253523304807E-002  1.654809902052807E-002 
 1.675624848214740E-002  1.696701614168293E-002  1.718043493201025E-002  1.739653820024955E-002 
 1.761535971297619E-002  1.783693366149671E-002  1.806129466719136E-002  1.828847778692374E-002 
 1.851851851851852E-002  1.875145280630805E-002  1.898731704674869E-002  1.922614809410788E-002 
 1.946798326622268E-002  1.971286035033073E-002  1.996081760897466E-002  2.021189378598059E-002 
 2.046612811251200E-002  2.072356031319966E-002  2.098423061234864E-002  2.124817974022357E-002 
 2.151544893941266E-002  2.178607997127206E-002  2.206011512245109E-002  2.233759721149964E-002 
 2.261856959555870E-002  2.290307617713491E-002  2.319116141096047E-002  2.348287031093927E-002 
 2.377824845718040E-002  2.407734200312021E-002  2.438019768273374E-002  2.468686281783710E-002 
 2.499738532548156E-002  2.531181372544067E-002  2.563019714779170E-002  2.595258534059211E-002 
 2.627902867765293E-002  2.660957816640973E-002  2.694428545589262E-002  2.728320284479659E-002 
 2.762638328965316E-002  2.797388041310506E-002  2.832574851228481E-002  2.868204256729876E-002 
 2.904281824981795E-002  2.940813193177674E-002  2.977804069418118E-002  3.015260233602798E-002 
 3.053187538333571E-002  3.091591909828969E-002  3.130479348850170E-002  3.169855931638640E-002 
 3.209727810865549E-002  3.250101216593145E-002  3.290982457248220E-002  3.332377920607795E-002 
 3.374294074797241E-002  3.416737469300928E-002  3.459714735985597E-002  3.503232590136612E-002 
 3.547297831507216E-002  3.591917345381028E-002  3.637098103647868E-002  3.682847165893133E-002 
 3.729171680500883E-002  3.776078885770770E-002  3.823576111049051E-002  3.871670777873809E-002 
 3.920370401134583E-002  3.969682590246592E-002  4.019615050339709E-002  4.070175583462413E-002 
 4.121372089800869E-002  4.173212568913349E-002  4.225705120980193E-002  4.278857948069453E-002 
 4.332679355418504E-002  4.387177752731744E-002  4.442361655494626E-002  4.498239686304238E-002 
 4.554820576216576E-002  4.612113166110800E-002  4.670126408070648E-002  4.728869366783198E-002 
 4.788351220955272E-002  4.848581264747596E-002  4.909568909227052E-002  4.971323683837171E-002 
 5.033855237887121E-002  5.097173342059458E-002  5.161287889936762E-002  5.226208899547592E-002 
 5.291946514931788E-002  5.358511007725483E-002  5.425912778766120E-002  5.494162359717535E-002 
 5.563270414715615E-002  5.633247742034566E-002  5.704105275774132E-002  5.775854087568139E-002 
 5.848505388314387E-002  5.922070529926434E-002  5.996561007107339E-002  6.071988459145691E-002 
 6.148364671734354E-002  6.225701578811908E-002  6.304011264427441E-002  6.383305964628662E-002 
 6.463598069373780E-002  6.544900124467544E-002  6.627224833521445E-002  6.710585059938780E-002 
 6.794993828924531E-002  6.880464329520562E-002  6.967009916666508E-002  7.054644113286412E-002 
 7.143380612401802E-002  7.233233279271213E-002  7.324216153556624E-002  7.416343451517277E-002 
 7.509629568230881E-002  7.604089079842984E-002  7.699736745844464E-002  7.796587511377703E-002 
 7.894656509571893E-002  7.993959063907490E-002  8.094510690610661E-002  8.196327101077662E-002 
 8.299424204329749E-002  8.403818109499088E-002  8.509525128345723E-002  8.616561777806424E-002 
 8.724944782575453E-002  8.834691077717782E-002  8.945817811315340E-002  9.058342347146307E-002 
 9.172282267398357E-002  9.287655375415857E-002  9.404479698481633E-002  9.522773490633873E-002 
 9.642555235518241E-002  9.763843649276092E-002  9.886657683468851E-002  1.001101652803920E-001 
 1.013693961430964E-001  1.026444661801856E-001  1.039355746239473E-001  1.052429232127027E-001 
 1.065667162223283E-001  1.079071604981755E-001  1.092644654873892E-001  1.106388432716356E-001 
 1.120305086002398E-001  1.134396789237405E-001  1.148665744278680E-001  1.163114180679475E-001 
 1.177744356037376E-001  1.192558556347049E-001  1.207559096357428E-001  1.222748319933414E-001 
 1.238128600422087E-001  1.253702341023569E-001  1.269471975166515E-001  1.285439966888340E-001 
 1.301608811220241E-001  1.317981034577037E-001  1.334559195151938E-001  1.351345883316266E-001 
 1.368343722024195E-001  1.385555367222608E-001  1.402983508266083E-001  1.420630868337116E-001 
 1.438500204871626E-001  1.456594309989795E-001  1.474916010932367E-001  1.493468170502384E-001 
 1.512253687512527E-001  1.531275497238051E-001  1.550536571875419E-001  1.570039921006737E-001 
 1.589788592069981E-001  1.609785670835185E-001  1.630034281886595E-001  1.650537589110877E-001 
 1.671298796191506E-001  1.692321147109320E-001  1.713607926649424E-001  1.735162460914433E-001 
 1.756988117844172E-001  1.779088307741947E-001  1.801466483807387E-001  1.824126142676034E-001 
 1.847070824965690E-001  1.870304115829640E-001  1.893829645516854E-001  1.917651089939203E-001 
 1.941772171245846E-001  1.966196658404817E-001  1.990928367791918E-001  2.015971163787065E-001 
 2.041328959378075E-001  2.067005716772105E-001  2.093005448014739E-001  2.119332215616874E-001 
 2.145990133189519E-001  2.172983366086521E-001  2.200316132055443E-001  2.227992701896581E-001 
 2.256017400130273E-001  2.284394605672642E-001  2.313128752519780E-001  2.342224330440597E-001 
 2.371685885678341E-001  2.401518021660951E-001  2.431725399720376E-001  2.462312739820887E-001 
 2.493284821296613E-001  2.524646483598290E-001  2.556402627049462E-001  2.588558213612157E-001 
 2.621118267662186E-001  2.654087876774250E-001  2.687472192516838E-001  2.721276431257211E-001 
 2.755505874976454E-001  2.790165872094776E-001  2.825261838307255E-001  2.860799257430005E-001 
 2.896783682257069E-001  2.933220735428043E-001  2.970116110306606E-001  3.007475571870159E-001 
 3.045304957610567E-001  3.083610178446323E-001  3.122397219646120E-001  3.161672141764048E-001 
 3.201441081586605E-001  3.241710253091535E-001  3.282485948418823E-001  3.323774538853825E-001 
 3.365582475822790E-001  3.407916291900939E-001  3.450782601833151E-001  3.494188103567571E-001 
 3.538139579302161E-001  3.582643896544411E-001  3.627708009184448E-001  3.673338958581543E-001 
 3.719543874664383E-001  3.766329977045116E-001  3.813704576147414E-001  3.861675074348784E-001 
 3.910248967137153E-001  3.959433844282100E-001  4.009237391020755E-001  4.059667389258606E-001 
 4.110731718785494E-001  4.162438358506783E-001  4.214795387690135E-001  4.267810987227889E-001 
 4.321493440915319E-001  4.375851136745046E-001  4.430892568217621E-001  4.486626335668700E-001 
 4.543061147612847E-001  4.600205822104231E-001  4.658069288114518E-001  4.716660586927980E-001 
 4.775988873554271E-001  4.836063418158887E-001  4.896893607511630E-001  4.958488946453362E-001 
 5.020859059381094E-001  5.084013691751870E-001  5.147962711605498E-001  5.212716111106418E-001 
 5.278284008105059E-001  5.344676647718710E-001  5.411904403932396E-001  5.479977781219811E-001 
 5.548907416184634E-001  5.618704079222585E-001  5.689378676204248E-001  5.760942250179196E-001 
 5.833405983101475E-001  5.906781197576759E-001  5.981079358631616E-001  6.056312075504847E-001 
 6.132491103461539E-001  6.209628345629808E-001  6.287735854860658E-001  6.366825835611338E-001 
 6.446910645852232E-001  6.528002798997877E-001  6.610114965862205E-001  6.693259976638322E-001 
 6.777450822903340E-001  6.862700659648259E-001  6.949022807333518E-001  7.036430753970334E-001 
 7.124938157228173E-001  7.214558846568893E-001  7.305306825407510E-001  7.397196273300358E-001 
 7.490241548160635E-001  7.584457188501815E-001  7.679857915709410E-001  7.776458636341113E-001 
 7.874274444456071E-001  7.973320623973327E-001  8.073612651059909E-001  8.175166196549127E-001 
 8.277997128389047E-001  8.382121514121993E-001  8.487555623395096E-001  8.594315930502403E-001 
 8.702419116959139E-001  8.811882074108093E-001  8.922721905759040E-001  9.034955930861196E-001 
 9.148601686209294E-001  9.263676929183854E-001  9.380199640525679E-001  9.498188027145501E-001 
 9.617660524968795E-001  9.738635801816380E-001  9.861132760321425E-001  9.985170540882883E-001 
 1.011076852465634E+000  1.023794633658231E+000  1.036672384845262E+000  1.049712118201553E+000 
 1.062915871211967E+000  1.076285706989778E+000  1.089823714599027E+000  1.103532009380944E+000 
 1.117412733284483E+000  1.131468055200988E+000  1.145700171303109E+000  1.160111305387943E+000 
 1.174703709224506E+000  1.189479662905592E+000  1.204441475204019E+000  1.219591483933402E+000 
 1.234932056313430E+000  1.250465589339744E+000  1.266194510158486E+000  1.282121276445531E+000 
 1.298248376790516E+000  1.314578331085684E+000  1.331113690919612E+000  1.347857039975921E+000 
 1.364810994436960E+000  1.381978203392609E+000  1.399361349254198E+000  1.416963148173628E+000 
 1.434786350467796E+000  1.452833741048318E+000  1.471108139856691E+000  1.489612402304913E+000 
 1.508349419721632E+000  1.527322119803947E+000  1.546533467074839E+000  1.565986463346407E+000 
 1.585684148188901E+000  1.605629599405646E+000  1.625825933513980E+000  1.646276306232191E+000 
 1.666983912972626E+000  1.687951989340971E+000  1.709183811641813E+000  1.730682697390588E+000 
 1.752452005831929E+000  1.774495138464572E+000  1.796815539572842E+000  1.819416696764816E+000 
 1.842302141517295E+000  1.865475449727576E+000  1.888940242272217E+000  1.912700185572794E+000 
 1.936758992168782E+000  1.961120421297667E+000  1.985788279482307E+000  2.010766421125733E+000 
 2.036058749113400E+000  2.061669215423006E+000  2.087601821742024E+000  2.113860620092945E+000 
 2.140449713466438E+000  2.167373256462443E+000  2.194635455939321E+000  2.222240571671214E+000 
 2.250192917013611E+000  2.278496859577343E+000  2.307156821911027E+000  2.336177282192077E+000 
 2.365562774926464E+000  2.395317891657203E+000  2.425447281681826E+000  2.455955652778827E+000 
 2.486847771943250E+000  2.518128466131576E+000  2.549802623015902E+000  2.581875191747688E+000 
 2.614351183731056E+000  2.647235673405815E+000  2.680533799040392E+000  2.714250763534651E+000 
 2.748391835232900E+000  2.782962348747055E+000  2.817967705790178E+000  2.853413376020535E+000 
 2.889304897896206E+000  2.925647879540509E+000  2.962447999618272E+000  2.999711008223118E+000 
 3.037442727775963E+000  3.075649053934743E+000  3.114335956515657E+000  3.153509480425947E+000 
 3.193175746608414E+000  3.233340952997860E+000  3.274011375489490E+000  3.315193368919568E+000 
 3.356893368058359E+000  3.399117888615555E+000  3.441873528258413E+000  3.485166967642602E+000 
 3.529004971456111E+000  3.573394389476233E+000  3.618342157639832E+000  3.663855299127143E+000 
 3.709940925459108E+000  3.756606237608609E+000  3.803858527125618E+000  3.851705177276493E+000 
 3.900153664197680E+000  3.949211558063816E+000  3.998886524270632E+000  4.049186324632670E+000 
 4.100118818596059E+000  4.151691964466616E+000  4.203913820653298E+000  4.256792546927386E+000 
 4.310336405697449E+000  4.364553763300345E+000  4.419453091308516E+000  4.475042967853644E+000 
 4.531332078967044E+000  4.588329219936858E+000  4.646043296682307E+000  4.704483327145319E+000 
 4.763658442699536E+000  4.823577889577162E+000  4.884251030313690E+000  4.945687345210780E+000 
 5.007896433817648E+000  5.070888016430936E+000  5.134671935613592E+000  5.199258157732769E+000 
 5.264656774517054E+000  5.330878004633395E+000  5.397932195283707E+000  5.465829823821709E+000 
 5.534581499390010E+000  5.604197964577775E+000  5.674690097099345E+000  5.746068911493823E+000 
 5.818345560846189E+000  5.891531338529965E+000  5.965637679971787E+000  6.040676164438302E+000 
 6.116658516845350E+000  6.193596609590093E+000  6.271502464406066E+000  6.350388254241563E+000 
 6.430266305161761E+000  6.511149098274608E+000  6.593049271681094E+000  6.675979622449957E+000 
 6.759953108617202E+000  6.844982851210911E+000  6.931082136301336E+000  7.018264417076955E+000 
 7.106543315946523E+000  7.195932626667570E+000  7.286446316501786E+000  7.378098528397333E+000 
 7.470903583198798E+000  7.564875981884825E+000  7.660030407833866E+000  7.756381729118598E+000 
 7.853945000828974E+000  7.952735467424702E+000  8.052768565117198E+000  8.154059924281462E+000 
 8.256625371898473E+000  8.360480934028065E+000  8.465642838313128E+000  8.572127516515177E+000 
 8.679951607081797E+000  8.789131957746536E+000  8.899685628161285E+000  9.011629892561986E+000 
 9.124982242467718E+000  9.239760389413741E+000  9.355982267719064E+000  9.473666037288597E+000 
 9.592830086450777E+000  9.713493034830750E+000  9.835673736259650E+000  9.959391281720693E+000 
 1.008466500233203E+001  1.021151447236739E+001  1.033995951231456E+001  1.047002019197232E+001 
 1.060171683358652E+001  1.073507001502530E+001  1.087010057299461E+001  1.100682960629386E+001 
 1.114527847911263E+001  1.128546882436904E+001  1.142742254708970E+001  1.157116182783261E+001 
 1.171670912615285E+001  1.186408718411187E+001  1.201331902983109E+001  1.216442798109000E+001 
 1.231743764896966E+001  1.247237194154203E+001  1.262925506760547E+001  1.278811154046767E+001 
 1.294896618177566E+001  1.311184412539443E+001  1.327677082133407E+001  1.344377203972632E+001 
 1.361287387485137E+001  1.378410274921495E+001  1.395748541767706E+001  1.413304897163244E+001 
 1.431082084324352E+001  1.449082880972697E+001  1.467310099769374E+001  1.485766588754406E+001 
 1.504455231791748E+001  1.523378949019893E+001  1.542540697308164E+001  1.561943470718710E+001 
 1.581590300974355E+001  1.601484257932299E+001  1.621628450063789E+001  1.642026024939832E+001 
 1.662680169722997E+001  1.683594111665430E+001  1.704771118613113E+001  1.726214499516460E+001 
 1.747927604947370E+001  1.769913827622736E+001  1.792176602934586E+001  1.814719409486860E+001 
 1.837545769638938E+001  1.860659250056040E+001  1.884063462266502E+001  1.907762063226100E+001 